LAMMPS Simulation Data
512 atoms
3 atom types

0 11.69 xlo xhi 
0 11.69 ylo yhi 
0 11.69 zlo zhi 

Masses

1 1.0
2 1.0
3 1.0

Atoms

1 1 0.73062500 0.73062500 0.73062500
2 1 0.73062500 0.73062500 2.19187500
3 1 0.73062500 0.73062500 3.65312500
4 1 0.73062500 0.73062500 5.11437500
5 1 0.73062500 0.73062500 6.57562500
6 1 0.73062500 0.73062500 8.03687500
7 1 0.73062500 0.73062500 9.49812500
8 1 0.73062500 0.73062500 10.95937500
9 1 0.73062500 2.19187500 0.73062500
10 1 0.73062500 2.19187500 2.19187500
11 1 0.73062500 2.19187500 3.65312500
12 1 0.73062500 2.19187500 5.11437500
13 1 0.73062500 2.19187500 6.57562500
14 1 0.73062500 2.19187500 8.03687500
15 1 0.73062500 2.19187500 9.49812500
16 1 0.73062500 2.19187500 10.95937500
17 1 0.73062500 3.65312500 0.73062500
18 1 0.73062500 3.65312500 2.19187500
19 1 0.73062500 3.65312500 3.65312500
20 1 0.73062500 3.65312500 5.11437500
21 1 0.73062500 3.65312500 6.57562500
22 1 0.73062500 3.65312500 8.03687500
23 1 0.73062500 3.65312500 9.49812500
24 1 0.73062500 3.65312500 10.95937500
25 1 0.73062500 5.11437500 0.73062500
26 1 0.73062500 5.11437500 2.19187500
27 1 0.73062500 5.11437500 3.65312500
28 1 0.73062500 5.11437500 5.11437500
29 1 0.73062500 5.11437500 6.57562500
30 1 0.73062500 5.11437500 8.03687500
31 1 0.73062500 5.11437500 9.49812500
32 1 0.73062500 5.11437500 10.95937500
33 1 0.73062500 6.57562500 0.73062500
34 1 0.73062500 6.57562500 2.19187500
35 1 0.73062500 6.57562500 3.65312500
36 1 0.73062500 6.57562500 5.11437500
37 1 0.73062500 6.57562500 6.57562500
38 1 0.73062500 6.57562500 8.03687500
39 1 0.73062500 6.57562500 9.49812500
40 1 0.73062500 6.57562500 10.95937500
41 1 0.73062500 8.03687500 0.73062500
42 1 0.73062500 8.03687500 2.19187500
43 1 0.73062500 8.03687500 3.65312500
44 1 0.73062500 8.03687500 5.11437500
45 1 0.73062500 8.03687500 6.57562500
46 1 0.73062500 8.03687500 8.03687500
47 1 0.73062500 8.03687500 9.49812500
48 1 0.73062500 8.03687500 10.95937500
49 1 0.73062500 9.49812500 0.73062500
50 1 0.73062500 9.49812500 2.19187500
51 1 0.73062500 9.49812500 3.65312500
52 1 0.73062500 9.49812500 5.11437500
53 1 0.73062500 9.49812500 6.57562500
54 1 0.73062500 9.49812500 8.03687500
55 1 0.73062500 9.49812500 9.49812500
56 1 0.73062500 9.49812500 10.95937500
57 1 0.73062500 10.95937500 0.73062500
58 1 0.73062500 10.95937500 2.19187500
59 1 0.73062500 10.95937500 3.65312500
60 1 0.73062500 10.95937500 5.11437500
61 1 0.73062500 10.95937500 6.57562500
62 1 0.73062500 10.95937500 8.03687500
63 1 0.73062500 10.95937500 9.49812500
64 1 0.73062500 10.95937500 10.95937500
65 1 2.19187500 0.73062500 0.73062500
66 1 2.19187500 0.73062500 2.19187500
67 1 2.19187500 0.73062500 3.65312500
68 1 2.19187500 0.73062500 5.11437500
69 1 2.19187500 0.73062500 6.57562500
70 1 2.19187500 0.73062500 8.03687500
71 1 2.19187500 0.73062500 9.49812500
72 1 2.19187500 0.73062500 10.95937500
73 1 2.19187500 2.19187500 0.73062500
74 1 2.19187500 2.19187500 2.19187500
75 1 2.19187500 2.19187500 3.65312500
76 1 2.19187500 2.19187500 5.11437500
77 1 2.19187500 2.19187500 6.57562500
78 1 2.19187500 2.19187500 8.03687500
79 1 2.19187500 2.19187500 9.49812500
80 1 2.19187500 2.19187500 10.95937500
81 1 2.19187500 3.65312500 0.73062500
82 1 2.19187500 3.65312500 2.19187500
83 1 2.19187500 3.65312500 3.65312500
84 1 2.19187500 3.65312500 5.11437500
85 1 2.19187500 3.65312500 6.57562500
86 1 2.19187500 3.65312500 8.03687500
87 1 2.19187500 3.65312500 9.49812500
88 1 2.19187500 3.65312500 10.95937500
89 1 2.19187500 5.11437500 0.73062500
90 1 2.19187500 5.11437500 2.19187500
91 1 2.19187500 5.11437500 3.65312500
92 1 2.19187500 5.11437500 5.11437500
93 1 2.19187500 5.11437500 6.57562500
94 1 2.19187500 5.11437500 8.03687500
95 1 2.19187500 5.11437500 9.49812500
96 1 2.19187500 5.11437500 10.95937500
97 1 2.19187500 6.57562500 0.73062500
98 1 2.19187500 6.57562500 2.19187500
99 1 2.19187500 6.57562500 3.65312500
100 1 2.19187500 6.57562500 5.11437500
101 1 2.19187500 6.57562500 6.57562500
102 1 2.19187500 6.57562500 8.03687500
103 1 2.19187500 6.57562500 9.49812500
104 1 2.19187500 6.57562500 10.95937500
105 1 2.19187500 8.03687500 0.73062500
106 1 2.19187500 8.03687500 2.19187500
107 1 2.19187500 8.03687500 3.65312500
108 1 2.19187500 8.03687500 5.11437500
109 1 2.19187500 8.03687500 6.57562500
110 1 2.19187500 8.03687500 8.03687500
111 1 2.19187500 8.03687500 9.49812500
112 1 2.19187500 8.03687500 10.95937500
113 1 2.19187500 9.49812500 0.73062500
114 1 2.19187500 9.49812500 2.19187500
115 1 2.19187500 9.49812500 3.65312500
116 1 2.19187500 9.49812500 5.11437500
117 1 2.19187500 9.49812500 6.57562500
118 1 2.19187500 9.49812500 8.03687500
119 1 2.19187500 9.49812500 9.49812500
120 1 2.19187500 9.49812500 10.95937500
121 1 2.19187500 10.95937500 0.73062500
122 1 2.19187500 10.95937500 2.19187500
123 1 2.19187500 10.95937500 3.65312500
124 1 2.19187500 10.95937500 5.11437500
125 1 2.19187500 10.95937500 6.57562500
126 1 2.19187500 10.95937500 8.03687500
127 1 2.19187500 10.95937500 9.49812500
128 1 2.19187500 10.95937500 10.95937500
129 1 3.65312500 0.73062500 0.73062500
130 1 3.65312500 0.73062500 2.19187500
131 1 3.65312500 0.73062500 3.65312500
132 1 3.65312500 0.73062500 5.11437500
133 1 3.65312500 0.73062500 6.57562500
134 1 3.65312500 0.73062500 8.03687500
135 1 3.65312500 0.73062500 9.49812500
136 1 3.65312500 0.73062500 10.95937500
137 1 3.65312500 2.19187500 0.73062500
138 1 3.65312500 2.19187500 2.19187500
139 1 3.65312500 2.19187500 3.65312500
140 1 3.65312500 2.19187500 5.11437500
141 1 3.65312500 2.19187500 6.57562500
142 1 3.65312500 2.19187500 8.03687500
143 1 3.65312500 2.19187500 9.49812500
144 1 3.65312500 2.19187500 10.95937500
145 1 3.65312500 3.65312500 0.73062500
146 1 3.65312500 3.65312500 2.19187500
147 1 3.65312500 3.65312500 3.65312500
148 1 3.65312500 3.65312500 5.11437500
149 1 3.65312500 3.65312500 6.57562500
150 1 3.65312500 3.65312500 8.03687500
151 1 3.65312500 3.65312500 9.49812500
152 1 3.65312500 3.65312500 10.95937500
153 1 3.65312500 5.11437500 0.73062500
154 1 3.65312500 5.11437500 2.19187500
155 1 3.65312500 5.11437500 3.65312500
156 1 3.65312500 5.11437500 5.11437500
157 1 3.65312500 5.11437500 6.57562500
158 1 3.65312500 5.11437500 8.03687500
159 1 3.65312500 5.11437500 9.49812500
160 1 3.65312500 5.11437500 10.95937500
161 1 3.65312500 6.57562500 0.73062500
162 1 3.65312500 6.57562500 2.19187500
163 1 3.65312500 6.57562500 3.65312500
164 1 3.65312500 6.57562500 5.11437500
165 1 3.65312500 6.57562500 6.57562500
166 1 3.65312500 6.57562500 8.03687500
167 1 3.65312500 6.57562500 9.49812500
168 1 3.65312500 6.57562500 10.95937500
169 1 3.65312500 8.03687500 0.73062500
170 1 3.65312500 8.03687500 2.19187500
171 1 3.65312500 8.03687500 3.65312500
172 1 3.65312500 8.03687500 5.11437500
173 1 3.65312500 8.03687500 6.57562500
174 1 3.65312500 8.03687500 8.03687500
175 1 3.65312500 8.03687500 9.49812500
176 1 3.65312500 8.03687500 10.95937500
177 1 3.65312500 9.49812500 0.73062500
178 1 3.65312500 9.49812500 2.19187500
179 1 3.65312500 9.49812500 3.65312500
180 1 3.65312500 9.49812500 5.11437500
181 1 3.65312500 9.49812500 6.57562500
182 1 3.65312500 9.49812500 8.03687500
183 1 3.65312500 9.49812500 9.49812500
184 1 3.65312500 9.49812500 10.95937500
185 1 3.65312500 10.95937500 0.73062500
186 1 3.65312500 10.95937500 2.19187500
187 1 3.65312500 10.95937500 3.65312500
188 1 3.65312500 10.95937500 5.11437500
189 1 3.65312500 10.95937500 6.57562500
190 1 3.65312500 10.95937500 8.03687500
191 1 3.65312500 10.95937500 9.49812500
192 1 3.65312500 10.95937500 10.95937500
193 1 5.11437500 0.73062500 0.73062500
194 1 5.11437500 0.73062500 2.19187500
195 1 5.11437500 0.73062500 3.65312500
196 1 5.11437500 0.73062500 5.11437500
197 1 5.11437500 0.73062500 6.57562500
198 1 5.11437500 0.73062500 8.03687500
199 1 5.11437500 0.73062500 9.49812500
200 1 5.11437500 0.73062500 10.95937500
201 1 5.11437500 2.19187500 0.73062500
202 1 5.11437500 2.19187500 2.19187500
203 1 5.11437500 2.19187500 3.65312500
204 1 5.11437500 2.19187500 5.11437500
205 1 5.11437500 2.19187500 6.57562500
206 1 5.11437500 2.19187500 8.03687500
207 1 5.11437500 2.19187500 9.49812500
208 1 5.11437500 2.19187500 10.95937500
209 1 5.11437500 3.65312500 0.73062500
210 1 5.11437500 3.65312500 2.19187500
211 1 5.11437500 3.65312500 3.65312500
212 1 5.11437500 3.65312500 5.11437500
213 1 5.11437500 3.65312500 6.57562500
214 1 5.11437500 3.65312500 8.03687500
215 1 5.11437500 3.65312500 9.49812500
216 1 5.11437500 3.65312500 10.95937500
217 1 5.11437500 5.11437500 0.73062500
218 1 5.11437500 5.11437500 2.19187500
219 1 5.11437500 5.11437500 3.65312500
220 1 5.11437500 5.11437500 5.11437500
221 1 5.11437500 5.11437500 6.57562500
222 1 5.11437500 5.11437500 8.03687500
223 1 5.11437500 5.11437500 9.49812500
224 1 5.11437500 5.11437500 10.95937500
225 1 5.11437500 6.57562500 0.73062500
226 1 5.11437500 6.57562500 2.19187500
227 1 5.11437500 6.57562500 3.65312500
228 1 5.11437500 6.57562500 5.11437500
229 1 5.11437500 6.57562500 6.57562500
230 1 5.11437500 6.57562500 8.03687500
231 1 5.11437500 6.57562500 9.49812500
232 1 5.11437500 6.57562500 10.95937500
233 1 5.11437500 8.03687500 0.73062500
234 1 5.11437500 8.03687500 2.19187500
235 1 5.11437500 8.03687500 3.65312500
236 1 5.11437500 8.03687500 5.11437500
237 1 5.11437500 8.03687500 6.57562500
238 1 5.11437500 8.03687500 8.03687500
239 1 5.11437500 8.03687500 9.49812500
240 1 5.11437500 8.03687500 10.95937500
241 1 5.11437500 9.49812500 0.73062500
242 1 5.11437500 9.49812500 2.19187500
243 1 5.11437500 9.49812500 3.65312500
244 1 5.11437500 9.49812500 5.11437500
245 1 5.11437500 9.49812500 6.57562500
246 1 5.11437500 9.49812500 8.03687500
247 1 5.11437500 9.49812500 9.49812500
248 1 5.11437500 9.49812500 10.95937500
249 1 5.11437500 10.95937500 0.73062500
250 1 5.11437500 10.95937500 2.19187500
251 1 5.11437500 10.95937500 3.65312500
252 1 5.11437500 10.95937500 5.11437500
253 1 5.11437500 10.95937500 6.57562500
254 1 5.11437500 10.95937500 8.03687500
255 1 5.11437500 10.95937500 9.49812500
256 1 5.11437500 10.95937500 10.95937500
257 1 6.57562500 0.73062500 0.73062500
258 1 6.57562500 0.73062500 2.19187500
259 1 6.57562500 0.73062500 3.65312500
260 1 6.57562500 0.73062500 5.11437500
261 1 6.57562500 0.73062500 6.57562500
262 1 6.57562500 0.73062500 8.03687500
263 1 6.57562500 0.73062500 9.49812500
264 1 6.57562500 0.73062500 10.95937500
265 1 6.57562500 2.19187500 0.73062500
266 1 6.57562500 2.19187500 2.19187500
267 1 6.57562500 2.19187500 3.65312500
268 1 6.57562500 2.19187500 5.11437500
269 1 6.57562500 2.19187500 6.57562500
270 1 6.57562500 2.19187500 8.03687500
271 1 6.57562500 2.19187500 9.49812500
272 1 6.57562500 2.19187500 10.95937500
273 1 6.57562500 3.65312500 0.73062500
274 1 6.57562500 3.65312500 2.19187500
275 1 6.57562500 3.65312500 3.65312500
276 1 6.57562500 3.65312500 5.11437500
277 1 6.57562500 3.65312500 6.57562500
278 1 6.57562500 3.65312500 8.03687500
279 1 6.57562500 3.65312500 9.49812500
280 1 6.57562500 3.65312500 10.95937500
281 1 6.57562500 5.11437500 0.73062500
282 1 6.57562500 5.11437500 2.19187500
283 1 6.57562500 5.11437500 3.65312500
284 1 6.57562500 5.11437500 5.11437500
285 1 6.57562500 5.11437500 6.57562500
286 1 6.57562500 5.11437500 8.03687500
287 1 6.57562500 5.11437500 9.49812500
288 1 6.57562500 5.11437500 10.95937500
289 1 6.57562500 6.57562500 0.73062500
290 1 6.57562500 6.57562500 2.19187500
291 1 6.57562500 6.57562500 3.65312500
292 1 6.57562500 6.57562500 5.11437500
293 1 6.57562500 6.57562500 6.57562500
294 1 6.57562500 6.57562500 8.03687500
295 1 6.57562500 6.57562500 9.49812500
296 1 6.57562500 6.57562500 10.95937500
297 1 6.57562500 8.03687500 0.73062500
298 1 6.57562500 8.03687500 2.19187500
299 1 6.57562500 8.03687500 3.65312500
300 1 6.57562500 8.03687500 5.11437500
301 1 6.57562500 8.03687500 6.57562500
302 1 6.57562500 8.03687500 8.03687500
303 1 6.57562500 8.03687500 9.49812500
304 1 6.57562500 8.03687500 10.95937500
305 1 6.57562500 9.49812500 0.73062500
306 1 6.57562500 9.49812500 2.19187500
307 1 6.57562500 9.49812500 3.65312500
308 1 6.57562500 9.49812500 5.11437500
309 1 6.57562500 9.49812500 6.57562500
310 1 6.57562500 9.49812500 8.03687500
311 1 6.57562500 9.49812500 9.49812500
312 1 6.57562500 9.49812500 10.95937500
313 1 6.57562500 10.95937500 0.73062500
314 1 6.57562500 10.95937500 2.19187500
315 1 6.57562500 10.95937500 3.65312500
316 1 6.57562500 10.95937500 5.11437500
317 1 6.57562500 10.95937500 6.57562500
318 1 6.57562500 10.95937500 8.03687500
319 1 6.57562500 10.95937500 9.49812500
320 1 6.57562500 10.95937500 10.95937500
321 1 8.03687500 0.73062500 0.73062500
322 1 8.03687500 0.73062500 2.19187500
323 1 8.03687500 0.73062500 3.65312500
324 1 8.03687500 0.73062500 5.11437500
325 1 8.03687500 0.73062500 6.57562500
326 1 8.03687500 0.73062500 8.03687500
327 1 8.03687500 0.73062500 9.49812500
328 1 8.03687500 0.73062500 10.95937500
329 1 8.03687500 2.19187500 0.73062500
330 1 8.03687500 2.19187500 2.19187500
331 1 8.03687500 2.19187500 3.65312500
332 1 8.03687500 2.19187500 5.11437500
333 1 8.03687500 2.19187500 6.57562500
334 1 8.03687500 2.19187500 8.03687500
335 1 8.03687500 2.19187500 9.49812500
336 1 8.03687500 2.19187500 10.95937500
337 1 8.03687500 3.65312500 0.73062500
338 1 8.03687500 3.65312500 2.19187500
339 1 8.03687500 3.65312500 3.65312500
340 1 8.03687500 3.65312500 5.11437500
341 1 8.03687500 3.65312500 6.57562500
342 1 8.03687500 3.65312500 8.03687500
343 1 8.03687500 3.65312500 9.49812500
344 1 8.03687500 3.65312500 10.95937500
345 1 8.03687500 5.11437500 0.73062500
346 1 8.03687500 5.11437500 2.19187500
347 1 8.03687500 5.11437500 3.65312500
348 1 8.03687500 5.11437500 5.11437500
349 1 8.03687500 5.11437500 6.57562500
350 1 8.03687500 5.11437500 8.03687500
351 1 8.03687500 5.11437500 9.49812500
352 1 8.03687500 5.11437500 10.95937500
353 1 8.03687500 6.57562500 0.73062500
354 1 8.03687500 6.57562500 2.19187500
355 1 8.03687500 6.57562500 3.65312500
356 1 8.03687500 6.57562500 5.11437500
357 1 8.03687500 6.57562500 6.57562500
358 1 8.03687500 6.57562500 8.03687500
359 1 8.03687500 6.57562500 9.49812500
360 1 8.03687500 6.57562500 10.95937500
361 1 8.03687500 8.03687500 0.73062500
362 1 8.03687500 8.03687500 2.19187500
363 1 8.03687500 8.03687500 3.65312500
364 1 8.03687500 8.03687500 5.11437500
365 1 8.03687500 8.03687500 6.57562500
366 1 8.03687500 8.03687500 8.03687500
367 1 8.03687500 8.03687500 9.49812500
368 1 8.03687500 8.03687500 10.95937500
369 1 8.03687500 9.49812500 0.73062500
370 1 8.03687500 9.49812500 2.19187500
371 1 8.03687500 9.49812500 3.65312500
372 1 8.03687500 9.49812500 5.11437500
373 1 8.03687500 9.49812500 6.57562500
374 1 8.03687500 9.49812500 8.03687500
375 1 8.03687500 9.49812500 9.49812500
376 1 8.03687500 9.49812500 10.95937500
377 1 8.03687500 10.95937500 0.73062500
378 1 8.03687500 10.95937500 2.19187500
379 1 8.03687500 10.95937500 3.65312500
380 1 8.03687500 10.95937500 5.11437500
381 1 8.03687500 10.95937500 6.57562500
382 1 8.03687500 10.95937500 8.03687500
383 1 8.03687500 10.95937500 9.49812500
384 1 8.03687500 10.95937500 10.95937500
385 1 9.49812500 0.73062500 0.73062500
386 1 9.49812500 0.73062500 2.19187500
387 1 9.49812500 0.73062500 3.65312500
388 1 9.49812500 0.73062500 5.11437500
389 1 9.49812500 0.73062500 6.57562500
390 1 9.49812500 0.73062500 8.03687500
391 1 9.49812500 0.73062500 9.49812500
392 1 9.49812500 0.73062500 10.95937500
393 1 9.49812500 2.19187500 0.73062500
394 1 9.49812500 2.19187500 2.19187500
395 1 9.49812500 2.19187500 3.65312500
396 1 9.49812500 2.19187500 5.11437500
397 1 9.49812500 2.19187500 6.57562500
398 1 9.49812500 2.19187500 8.03687500
399 1 9.49812500 2.19187500 9.49812500
400 1 9.49812500 2.19187500 10.95937500
401 1 9.49812500 3.65312500 0.73062500
402 1 9.49812500 3.65312500 2.19187500
403 1 9.49812500 3.65312500 3.65312500
404 1 9.49812500 3.65312500 5.11437500
405 1 9.49812500 3.65312500 6.57562500
406 1 9.49812500 3.65312500 8.03687500
407 1 9.49812500 3.65312500 9.49812500
408 1 9.49812500 3.65312500 10.95937500
409 1 9.49812500 5.11437500 0.73062500
410 1 9.49812500 5.11437500 2.19187500
411 1 9.49812500 5.11437500 3.65312500
412 1 9.49812500 5.11437500 5.11437500
413 1 9.49812500 5.11437500 6.57562500
414 1 9.49812500 5.11437500 8.03687500
415 1 9.49812500 5.11437500 9.49812500
416 1 9.49812500 5.11437500 10.95937500
417 1 9.49812500 6.57562500 0.73062500
418 1 9.49812500 6.57562500 2.19187500
419 1 9.49812500 6.57562500 3.65312500
420 1 9.49812500 6.57562500 5.11437500
421 1 9.49812500 6.57562500 6.57562500
422 1 9.49812500 6.57562500 8.03687500
423 1 9.49812500 6.57562500 9.49812500
424 1 9.49812500 6.57562500 10.95937500
425 1 9.49812500 8.03687500 0.73062500
426 1 9.49812500 8.03687500 2.19187500
427 1 9.49812500 8.03687500 3.65312500
428 1 9.49812500 8.03687500 5.11437500
429 1 9.49812500 8.03687500 6.57562500
430 1 9.49812500 8.03687500 8.03687500
431 1 9.49812500 8.03687500 9.49812500
432 1 9.49812500 8.03687500 10.95937500
433 1 9.49812500 9.49812500 0.73062500
434 1 9.49812500 9.49812500 2.19187500
435 1 9.49812500 9.49812500 3.65312500
436 1 9.49812500 9.49812500 5.11437500
437 1 9.49812500 9.49812500 6.57562500
438 1 9.49812500 9.49812500 8.03687500
439 1 9.49812500 9.49812500 9.49812500
440 1 9.49812500 9.49812500 10.95937500
441 1 9.49812500 10.95937500 0.73062500
442 1 9.49812500 10.95937500 2.19187500
443 1 9.49812500 10.95937500 3.65312500
444 1 9.49812500 10.95937500 5.11437500
445 1 9.49812500 10.95937500 6.57562500
446 1 9.49812500 10.95937500 8.03687500
447 1 9.49812500 10.95937500 9.49812500
448 1 9.49812500 10.95937500 10.95937500
449 1 10.95937500 0.73062500 0.73062500
450 1 10.95937500 0.73062500 2.19187500
451 1 10.95937500 0.73062500 3.65312500
452 1 10.95937500 0.73062500 5.11437500
453 1 10.95937500 0.73062500 6.57562500
454 1 10.95937500 0.73062500 8.03687500
455 1 10.95937500 0.73062500 9.49812500
456 1 10.95937500 0.73062500 10.95937500
457 1 10.95937500 2.19187500 0.73062500
458 1 10.95937500 2.19187500 2.19187500
459 1 10.95937500 2.19187500 3.65312500
460 1 10.95937500 2.19187500 5.11437500
461 2 10.95937500 2.19187500 6.57562500
462 2 10.95937500 2.19187500 8.03687500
463 2 10.95937500 2.19187500 9.49812500
464 2 10.95937500 2.19187500 10.95937500
465 2 10.95937500 3.65312500 0.73062500
466 2 10.95937500 3.65312500 2.19187500
467 2 10.95937500 3.65312500 3.65312500
468 2 10.95937500 3.65312500 5.11437500
469 2 10.95937500 3.65312500 6.57562500
470 2 10.95937500 3.65312500 8.03687500
471 2 10.95937500 3.65312500 9.49812500
472 2 10.95937500 3.65312500 10.95937500
473 2 10.95937500 5.11437500 0.73062500
474 2 10.95937500 5.11437500 2.19187500
475 2 10.95937500 5.11437500 3.65312500
476 2 10.95937500 5.11437500 5.11437500
477 2 10.95937500 5.11437500 6.57562500
478 2 10.95937500 5.11437500 8.03687500
479 2 10.95937500 5.11437500 9.49812500
480 2 10.95937500 5.11437500 10.95937500
481 2 10.95937500 6.57562500 0.73062500
482 2 10.95937500 6.57562500 2.19187500
483 2 10.95937500 6.57562500 3.65312500
484 2 10.95937500 6.57562500 5.11437500
485 2 10.95937500 6.57562500 6.57562500
486 2 10.95937500 6.57562500 8.03687500
487 3 10.95937500 6.57562500 9.49812500
488 3 10.95937500 6.57562500 10.95937500
489 3 10.95937500 8.03687500 0.73062500
490 3 10.95937500 8.03687500 2.19187500
491 3 10.95937500 8.03687500 3.65312500
492 3 10.95937500 8.03687500 5.11437500
493 3 10.95937500 8.03687500 6.57562500
494 3 10.95937500 8.03687500 8.03687500
495 3 10.95937500 8.03687500 9.49812500
496 3 10.95937500 8.03687500 10.95937500
497 3 10.95937500 9.49812500 0.73062500
498 3 10.95937500 9.49812500 2.19187500
499 3 10.95937500 9.49812500 3.65312500
500 3 10.95937500 9.49812500 5.11437500
501 3 10.95937500 9.49812500 6.57562500
502 3 10.95937500 9.49812500 8.03687500
503 3 10.95937500 9.49812500 9.49812500
504 3 10.95937500 9.49812500 10.95937500
505 3 10.95937500 10.95937500 0.73062500
506 3 10.95937500 10.95937500 2.19187500
507 3 10.95937500 10.95937500 3.65312500
508 3 10.95937500 10.95937500 5.11437500
509 3 10.95937500 10.95937500 6.57562500
510 3 10.95937500 10.95937500 8.03687500
511 3 10.95937500 10.95937500 9.49812500
512 3 10.95937500 10.95937500 10.95937500
