LAMMPS Simulation Data
500 atoms
1 atom types

0 11.26247880443606 xlo xhi 
0 11.26247880443606 ylo yhi 
0 11.26247880443606 zlo zhi 

Masses

1 1.0

Atoms

1 1 0.70390493 0.70390493 0.70390493
2 1 0.70390493 0.70390493 2.11171478
3 1 0.70390493 0.70390493 3.51952463
4 1 0.70390493 0.70390493 4.92733448
5 1 0.70390493 0.70390493 6.33514433
6 1 0.70390493 0.70390493 7.74295418
7 1 0.70390493 0.70390493 9.15076403
8 1 0.70390493 0.70390493 10.55857388
9 1 0.70390493 2.11171478 0.70390493
10 1 0.70390493 2.11171478 2.11171478
11 1 0.70390493 2.11171478 3.51952463
12 1 0.70390493 2.11171478 4.92733448
13 1 0.70390493 2.11171478 6.33514433
14 1 0.70390493 2.11171478 7.74295418
15 1 0.70390493 2.11171478 9.15076403
16 1 0.70390493 2.11171478 10.55857388
17 1 0.70390493 3.51952463 0.70390493
18 1 0.70390493 3.51952463 2.11171478
19 1 0.70390493 3.51952463 3.51952463
20 1 0.70390493 3.51952463 4.92733448
21 1 0.70390493 3.51952463 6.33514433
22 1 0.70390493 3.51952463 7.74295418
23 1 0.70390493 3.51952463 9.15076403
24 1 0.70390493 3.51952463 10.55857388
25 1 0.70390493 4.92733448 0.70390493
26 1 0.70390493 4.92733448 2.11171478
27 1 0.70390493 4.92733448 3.51952463
28 1 0.70390493 4.92733448 4.92733448
29 1 0.70390493 4.92733448 6.33514433
30 1 0.70390493 4.92733448 7.74295418
31 1 0.70390493 4.92733448 9.15076403
32 1 0.70390493 4.92733448 10.55857388
33 1 0.70390493 6.33514433 0.70390493
34 1 0.70390493 6.33514433 2.11171478
35 1 0.70390493 6.33514433 3.51952463
36 1 0.70390493 6.33514433 4.92733448
37 1 0.70390493 6.33514433 6.33514433
38 1 0.70390493 6.33514433 7.74295418
39 1 0.70390493 6.33514433 9.15076403
40 1 0.70390493 6.33514433 10.55857388
41 1 0.70390493 7.74295418 0.70390493
42 1 0.70390493 7.74295418 2.11171478
43 1 0.70390493 7.74295418 3.51952463
44 1 0.70390493 7.74295418 4.92733448
45 1 0.70390493 7.74295418 6.33514433
46 1 0.70390493 7.74295418 7.74295418
47 1 0.70390493 7.74295418 9.15076403
48 1 0.70390493 7.74295418 10.55857388
49 1 0.70390493 9.15076403 0.70390493
50 1 0.70390493 9.15076403 2.11171478
51 1 0.70390493 9.15076403 3.51952463
52 1 0.70390493 9.15076403 4.92733448
53 1 0.70390493 9.15076403 6.33514433
54 1 0.70390493 9.15076403 7.74295418
55 1 0.70390493 9.15076403 9.15076403
56 1 0.70390493 9.15076403 10.55857388
57 1 0.70390493 10.55857388 0.70390493
58 1 0.70390493 10.55857388 2.11171478
59 1 0.70390493 10.55857388 3.51952463
60 1 0.70390493 10.55857388 4.92733448
61 1 0.70390493 10.55857388 6.33514433
62 1 0.70390493 10.55857388 7.74295418
63 1 0.70390493 10.55857388 9.15076403
64 1 0.70390493 10.55857388 10.55857388
65 1 2.11171478 0.70390493 0.70390493
66 1 2.11171478 0.70390493 2.11171478
67 1 2.11171478 0.70390493 3.51952463
68 1 2.11171478 0.70390493 4.92733448
69 1 2.11171478 0.70390493 6.33514433
70 1 2.11171478 0.70390493 7.74295418
71 1 2.11171478 0.70390493 9.15076403
72 1 2.11171478 0.70390493 10.55857388
73 1 2.11171478 2.11171478 0.70390493
74 1 2.11171478 2.11171478 2.11171478
75 1 2.11171478 2.11171478 3.51952463
76 1 2.11171478 2.11171478 4.92733448
77 1 2.11171478 2.11171478 6.33514433
78 1 2.11171478 2.11171478 7.74295418
79 1 2.11171478 2.11171478 9.15076403
80 1 2.11171478 2.11171478 10.55857388
81 1 2.11171478 3.51952463 0.70390493
82 1 2.11171478 3.51952463 2.11171478
83 1 2.11171478 3.51952463 3.51952463
84 1 2.11171478 3.51952463 4.92733448
85 1 2.11171478 3.51952463 6.33514433
86 1 2.11171478 3.51952463 7.74295418
87 1 2.11171478 3.51952463 9.15076403
88 1 2.11171478 3.51952463 10.55857388
89 1 2.11171478 4.92733448 0.70390493
90 1 2.11171478 4.92733448 2.11171478
91 1 2.11171478 4.92733448 3.51952463
92 1 2.11171478 4.92733448 4.92733448
93 1 2.11171478 4.92733448 6.33514433
94 1 2.11171478 4.92733448 7.74295418
95 1 2.11171478 4.92733448 9.15076403
96 1 2.11171478 4.92733448 10.55857388
97 1 2.11171478 6.33514433 0.70390493
98 1 2.11171478 6.33514433 2.11171478
99 1 2.11171478 6.33514433 3.51952463
100 1 2.11171478 6.33514433 4.92733448
101 1 2.11171478 6.33514433 6.33514433
102 1 2.11171478 6.33514433 7.74295418
103 1 2.11171478 6.33514433 9.15076403
104 1 2.11171478 6.33514433 10.55857388
105 1 2.11171478 7.74295418 0.70390493
106 1 2.11171478 7.74295418 2.11171478
107 1 2.11171478 7.74295418 3.51952463
108 1 2.11171478 7.74295418 4.92733448
109 1 2.11171478 7.74295418 6.33514433
110 1 2.11171478 7.74295418 7.74295418
111 1 2.11171478 7.74295418 9.15076403
112 1 2.11171478 7.74295418 10.55857388
113 1 2.11171478 9.15076403 0.70390493
114 1 2.11171478 9.15076403 2.11171478
115 1 2.11171478 9.15076403 3.51952463
116 1 2.11171478 9.15076403 4.92733448
117 1 2.11171478 9.15076403 6.33514433
118 1 2.11171478 9.15076403 7.74295418
119 1 2.11171478 9.15076403 9.15076403
120 1 2.11171478 9.15076403 10.55857388
121 1 2.11171478 10.55857388 0.70390493
122 1 2.11171478 10.55857388 2.11171478
123 1 2.11171478 10.55857388 3.51952463
124 1 2.11171478 10.55857388 4.92733448
125 1 2.11171478 10.55857388 6.33514433
126 1 2.11171478 10.55857388 7.74295418
127 1 2.11171478 10.55857388 9.15076403
128 1 2.11171478 10.55857388 10.55857388
129 1 3.51952463 0.70390493 0.70390493
130 1 3.51952463 0.70390493 2.11171478
131 1 3.51952463 0.70390493 3.51952463
132 1 3.51952463 0.70390493 4.92733448
133 1 3.51952463 0.70390493 6.33514433
134 1 3.51952463 0.70390493 7.74295418
135 1 3.51952463 0.70390493 9.15076403
136 1 3.51952463 0.70390493 10.55857388
137 1 3.51952463 2.11171478 0.70390493
138 1 3.51952463 2.11171478 2.11171478
139 1 3.51952463 2.11171478 3.51952463
140 1 3.51952463 2.11171478 4.92733448
141 1 3.51952463 2.11171478 6.33514433
142 1 3.51952463 2.11171478 7.74295418
143 1 3.51952463 2.11171478 9.15076403
144 1 3.51952463 2.11171478 10.55857388
145 1 3.51952463 3.51952463 0.70390493
146 1 3.51952463 3.51952463 2.11171478
147 1 3.51952463 3.51952463 3.51952463
148 1 3.51952463 3.51952463 4.92733448
149 1 3.51952463 3.51952463 6.33514433
150 1 3.51952463 3.51952463 7.74295418
151 1 3.51952463 3.51952463 9.15076403
152 1 3.51952463 3.51952463 10.55857388
153 1 3.51952463 4.92733448 0.70390493
154 1 3.51952463 4.92733448 2.11171478
155 1 3.51952463 4.92733448 3.51952463
156 1 3.51952463 4.92733448 4.92733448
157 1 3.51952463 4.92733448 6.33514433
158 1 3.51952463 4.92733448 7.74295418
159 1 3.51952463 4.92733448 9.15076403
160 1 3.51952463 4.92733448 10.55857388
161 1 3.51952463 6.33514433 0.70390493
162 1 3.51952463 6.33514433 2.11171478
163 1 3.51952463 6.33514433 3.51952463
164 1 3.51952463 6.33514433 4.92733448
165 1 3.51952463 6.33514433 6.33514433
166 1 3.51952463 6.33514433 7.74295418
167 1 3.51952463 6.33514433 9.15076403
168 1 3.51952463 6.33514433 10.55857388
169 1 3.51952463 7.74295418 0.70390493
170 1 3.51952463 7.74295418 2.11171478
171 1 3.51952463 7.74295418 3.51952463
172 1 3.51952463 7.74295418 4.92733448
173 1 3.51952463 7.74295418 6.33514433
174 1 3.51952463 7.74295418 7.74295418
175 1 3.51952463 7.74295418 9.15076403
176 1 3.51952463 7.74295418 10.55857388
177 1 3.51952463 9.15076403 0.70390493
178 1 3.51952463 9.15076403 2.11171478
179 1 3.51952463 9.15076403 3.51952463
180 1 3.51952463 9.15076403 4.92733448
181 1 3.51952463 9.15076403 6.33514433
182 1 3.51952463 9.15076403 7.74295418
183 1 3.51952463 9.15076403 9.15076403
184 1 3.51952463 9.15076403 10.55857388
185 1 3.51952463 10.55857388 0.70390493
186 1 3.51952463 10.55857388 2.11171478
187 1 3.51952463 10.55857388 3.51952463
188 1 3.51952463 10.55857388 4.92733448
189 1 3.51952463 10.55857388 6.33514433
190 1 3.51952463 10.55857388 7.74295418
191 1 3.51952463 10.55857388 9.15076403
192 1 3.51952463 10.55857388 10.55857388
193 1 4.92733448 0.70390493 0.70390493
194 1 4.92733448 0.70390493 2.11171478
195 1 4.92733448 0.70390493 3.51952463
196 1 4.92733448 0.70390493 4.92733448
197 1 4.92733448 0.70390493 6.33514433
198 1 4.92733448 0.70390493 7.74295418
199 1 4.92733448 0.70390493 9.15076403
200 1 4.92733448 0.70390493 10.55857388
201 1 4.92733448 2.11171478 0.70390493
202 1 4.92733448 2.11171478 2.11171478
203 1 4.92733448 2.11171478 3.51952463
204 1 4.92733448 2.11171478 4.92733448
205 1 4.92733448 2.11171478 6.33514433
206 1 4.92733448 2.11171478 7.74295418
207 1 4.92733448 2.11171478 9.15076403
208 1 4.92733448 2.11171478 10.55857388
209 1 4.92733448 3.51952463 0.70390493
210 1 4.92733448 3.51952463 2.11171478
211 1 4.92733448 3.51952463 3.51952463
212 1 4.92733448 3.51952463 4.92733448
213 1 4.92733448 3.51952463 6.33514433
214 1 4.92733448 3.51952463 7.74295418
215 1 4.92733448 3.51952463 9.15076403
216 1 4.92733448 3.51952463 10.55857388
217 1 4.92733448 4.92733448 0.70390493
218 1 4.92733448 4.92733448 2.11171478
219 1 4.92733448 4.92733448 3.51952463
220 1 4.92733448 4.92733448 4.92733448
221 1 4.92733448 4.92733448 6.33514433
222 1 4.92733448 4.92733448 7.74295418
223 1 4.92733448 4.92733448 9.15076403
224 1 4.92733448 4.92733448 10.55857388
225 1 4.92733448 6.33514433 0.70390493
226 1 4.92733448 6.33514433 2.11171478
227 1 4.92733448 6.33514433 3.51952463
228 1 4.92733448 6.33514433 4.92733448
229 1 4.92733448 6.33514433 6.33514433
230 1 4.92733448 6.33514433 7.74295418
231 1 4.92733448 6.33514433 9.15076403
232 1 4.92733448 6.33514433 10.55857388
233 1 4.92733448 7.74295418 0.70390493
234 1 4.92733448 7.74295418 2.11171478
235 1 4.92733448 7.74295418 3.51952463
236 1 4.92733448 7.74295418 4.92733448
237 1 4.92733448 7.74295418 6.33514433
238 1 4.92733448 7.74295418 7.74295418
239 1 4.92733448 7.74295418 9.15076403
240 1 4.92733448 7.74295418 10.55857388
241 1 4.92733448 9.15076403 0.70390493
242 1 4.92733448 9.15076403 2.11171478
243 1 4.92733448 9.15076403 3.51952463
244 1 4.92733448 9.15076403 4.92733448
245 1 4.92733448 9.15076403 6.33514433
246 1 4.92733448 9.15076403 7.74295418
247 1 4.92733448 9.15076403 9.15076403
248 1 4.92733448 9.15076403 10.55857388
249 1 4.92733448 10.55857388 0.70390493
250 1 4.92733448 10.55857388 2.11171478
251 1 4.92733448 10.55857388 3.51952463
252 1 4.92733448 10.55857388 4.92733448
253 1 4.92733448 10.55857388 6.33514433
254 1 4.92733448 10.55857388 7.74295418
255 1 4.92733448 10.55857388 9.15076403
256 1 4.92733448 10.55857388 10.55857388
257 1 6.33514433 0.70390493 0.70390493
258 1 6.33514433 0.70390493 2.11171478
259 1 6.33514433 0.70390493 3.51952463
260 1 6.33514433 0.70390493 4.92733448
261 1 6.33514433 0.70390493 6.33514433
262 1 6.33514433 0.70390493 7.74295418
263 1 6.33514433 0.70390493 9.15076403
264 1 6.33514433 0.70390493 10.55857388
265 1 6.33514433 2.11171478 0.70390493
266 1 6.33514433 2.11171478 2.11171478
267 1 6.33514433 2.11171478 3.51952463
268 1 6.33514433 2.11171478 4.92733448
269 1 6.33514433 2.11171478 6.33514433
270 1 6.33514433 2.11171478 7.74295418
271 1 6.33514433 2.11171478 9.15076403
272 1 6.33514433 2.11171478 10.55857388
273 1 6.33514433 3.51952463 0.70390493
274 1 6.33514433 3.51952463 2.11171478
275 1 6.33514433 3.51952463 3.51952463
276 1 6.33514433 3.51952463 4.92733448
277 1 6.33514433 3.51952463 6.33514433
278 1 6.33514433 3.51952463 7.74295418
279 1 6.33514433 3.51952463 9.15076403
280 1 6.33514433 3.51952463 10.55857388
281 1 6.33514433 4.92733448 0.70390493
282 1 6.33514433 4.92733448 2.11171478
283 1 6.33514433 4.92733448 3.51952463
284 1 6.33514433 4.92733448 4.92733448
285 1 6.33514433 4.92733448 6.33514433
286 1 6.33514433 4.92733448 7.74295418
287 1 6.33514433 4.92733448 9.15076403
288 1 6.33514433 4.92733448 10.55857388
289 1 6.33514433 6.33514433 0.70390493
290 1 6.33514433 6.33514433 2.11171478
291 1 6.33514433 6.33514433 3.51952463
292 1 6.33514433 6.33514433 4.92733448
293 1 6.33514433 6.33514433 6.33514433
294 1 6.33514433 6.33514433 7.74295418
295 1 6.33514433 6.33514433 9.15076403
296 1 6.33514433 6.33514433 10.55857388
297 1 6.33514433 7.74295418 0.70390493
298 1 6.33514433 7.74295418 2.11171478
299 1 6.33514433 7.74295418 3.51952463
300 1 6.33514433 7.74295418 4.92733448
301 1 6.33514433 7.74295418 6.33514433
302 1 6.33514433 7.74295418 7.74295418
303 1 6.33514433 7.74295418 9.15076403
304 1 6.33514433 7.74295418 10.55857388
305 1 6.33514433 9.15076403 0.70390493
306 1 6.33514433 9.15076403 2.11171478
307 1 6.33514433 9.15076403 3.51952463
308 1 6.33514433 9.15076403 4.92733448
309 1 6.33514433 9.15076403 6.33514433
310 1 6.33514433 9.15076403 7.74295418
311 1 6.33514433 9.15076403 9.15076403
312 1 6.33514433 9.15076403 10.55857388
313 1 6.33514433 10.55857388 0.70390493
314 1 6.33514433 10.55857388 2.11171478
315 1 6.33514433 10.55857388 3.51952463
316 1 6.33514433 10.55857388 4.92733448
317 1 6.33514433 10.55857388 6.33514433
318 1 6.33514433 10.55857388 7.74295418
319 1 6.33514433 10.55857388 9.15076403
320 1 6.33514433 10.55857388 10.55857388
321 1 7.74295418 0.70390493 0.70390493
322 1 7.74295418 0.70390493 2.11171478
323 1 7.74295418 0.70390493 3.51952463
324 1 7.74295418 0.70390493 4.92733448
325 1 7.74295418 0.70390493 6.33514433
326 1 7.74295418 0.70390493 7.74295418
327 1 7.74295418 0.70390493 9.15076403
328 1 7.74295418 0.70390493 10.55857388
329 1 7.74295418 2.11171478 0.70390493
330 1 7.74295418 2.11171478 2.11171478
331 1 7.74295418 2.11171478 3.51952463
332 1 7.74295418 2.11171478 4.92733448
333 1 7.74295418 2.11171478 6.33514433
334 1 7.74295418 2.11171478 7.74295418
335 1 7.74295418 2.11171478 9.15076403
336 1 7.74295418 2.11171478 10.55857388
337 1 7.74295418 3.51952463 0.70390493
338 1 7.74295418 3.51952463 2.11171478
339 1 7.74295418 3.51952463 3.51952463
340 1 7.74295418 3.51952463 4.92733448
341 1 7.74295418 3.51952463 6.33514433
342 1 7.74295418 3.51952463 7.74295418
343 1 7.74295418 3.51952463 9.15076403
344 1 7.74295418 3.51952463 10.55857388
345 1 7.74295418 4.92733448 0.70390493
346 1 7.74295418 4.92733448 2.11171478
347 1 7.74295418 4.92733448 3.51952463
348 1 7.74295418 4.92733448 4.92733448
349 1 7.74295418 4.92733448 6.33514433
350 1 7.74295418 4.92733448 7.74295418
351 1 7.74295418 4.92733448 9.15076403
352 1 7.74295418 4.92733448 10.55857388
353 1 7.74295418 6.33514433 0.70390493
354 1 7.74295418 6.33514433 2.11171478
355 1 7.74295418 6.33514433 3.51952463
356 1 7.74295418 6.33514433 4.92733448
357 1 7.74295418 6.33514433 6.33514433
358 1 7.74295418 6.33514433 7.74295418
359 1 7.74295418 6.33514433 9.15076403
360 1 7.74295418 6.33514433 10.55857388
361 1 7.74295418 7.74295418 0.70390493
362 1 7.74295418 7.74295418 2.11171478
363 1 7.74295418 7.74295418 3.51952463
364 1 7.74295418 7.74295418 4.92733448
365 1 7.74295418 7.74295418 6.33514433
366 1 7.74295418 7.74295418 7.74295418
367 1 7.74295418 7.74295418 9.15076403
368 1 7.74295418 7.74295418 10.55857388
369 1 7.74295418 9.15076403 0.70390493
370 1 7.74295418 9.15076403 2.11171478
371 1 7.74295418 9.15076403 3.51952463
372 1 7.74295418 9.15076403 4.92733448
373 1 7.74295418 9.15076403 6.33514433
374 1 7.74295418 9.15076403 7.74295418
375 1 7.74295418 9.15076403 9.15076403
376 1 7.74295418 9.15076403 10.55857388
377 1 7.74295418 10.55857388 0.70390493
378 1 7.74295418 10.55857388 2.11171478
379 1 7.74295418 10.55857388 3.51952463
380 1 7.74295418 10.55857388 4.92733448
381 1 7.74295418 10.55857388 6.33514433
382 1 7.74295418 10.55857388 7.74295418
383 1 7.74295418 10.55857388 9.15076403
384 1 7.74295418 10.55857388 10.55857388
385 1 9.15076403 0.70390493 0.70390493
386 1 9.15076403 0.70390493 2.11171478
387 1 9.15076403 0.70390493 3.51952463
388 1 9.15076403 0.70390493 4.92733448
389 1 9.15076403 0.70390493 6.33514433
390 1 9.15076403 0.70390493 7.74295418
391 1 9.15076403 0.70390493 9.15076403
392 1 9.15076403 0.70390493 10.55857388
393 1 9.15076403 2.11171478 0.70390493
394 1 9.15076403 2.11171478 2.11171478
395 1 9.15076403 2.11171478 3.51952463
396 1 9.15076403 2.11171478 4.92733448
397 1 9.15076403 2.11171478 6.33514433
398 1 9.15076403 2.11171478 7.74295418
399 1 9.15076403 2.11171478 9.15076403
400 1 9.15076403 2.11171478 10.55857388
401 1 9.15076403 3.51952463 0.70390493
402 1 9.15076403 3.51952463 2.11171478
403 1 9.15076403 3.51952463 3.51952463
404 1 9.15076403 3.51952463 4.92733448
405 1 9.15076403 3.51952463 6.33514433
406 1 9.15076403 3.51952463 7.74295418
407 1 9.15076403 3.51952463 9.15076403
408 1 9.15076403 3.51952463 10.55857388
409 1 9.15076403 4.92733448 0.70390493
410 1 9.15076403 4.92733448 2.11171478
411 1 9.15076403 4.92733448 3.51952463
412 1 9.15076403 4.92733448 4.92733448
413 1 9.15076403 4.92733448 6.33514433
414 1 9.15076403 4.92733448 7.74295418
415 1 9.15076403 4.92733448 9.15076403
416 1 9.15076403 4.92733448 10.55857388
417 1 9.15076403 6.33514433 0.70390493
418 1 9.15076403 6.33514433 2.11171478
419 1 9.15076403 6.33514433 3.51952463
420 1 9.15076403 6.33514433 4.92733448
421 1 9.15076403 6.33514433 6.33514433
422 1 9.15076403 6.33514433 7.74295418
423 1 9.15076403 6.33514433 9.15076403
424 1 9.15076403 6.33514433 10.55857388
425 1 9.15076403 7.74295418 0.70390493
426 1 9.15076403 7.74295418 2.11171478
427 1 9.15076403 7.74295418 3.51952463
428 1 9.15076403 7.74295418 4.92733448
429 1 9.15076403 7.74295418 6.33514433
430 1 9.15076403 7.74295418 7.74295418
431 1 9.15076403 7.74295418 9.15076403
432 1 9.15076403 7.74295418 10.55857388
433 1 9.15076403 9.15076403 0.70390493
434 1 9.15076403 9.15076403 2.11171478
435 1 9.15076403 9.15076403 3.51952463
436 1 9.15076403 9.15076403 4.92733448
437 1 9.15076403 9.15076403 6.33514433
438 1 9.15076403 9.15076403 7.74295418
439 1 9.15076403 9.15076403 9.15076403
440 1 9.15076403 9.15076403 10.55857388
441 1 9.15076403 10.55857388 0.70390493
442 1 9.15076403 10.55857388 2.11171478
443 1 9.15076403 10.55857388 3.51952463
444 1 9.15076403 10.55857388 4.92733448
445 1 9.15076403 10.55857388 6.33514433
446 1 9.15076403 10.55857388 7.74295418
447 1 9.15076403 10.55857388 9.15076403
448 1 9.15076403 10.55857388 10.55857388
449 1 10.55857388 0.70390493 0.70390493
450 1 10.55857388 0.70390493 2.11171478
451 1 10.55857388 0.70390493 3.51952463
452 1 10.55857388 0.70390493 4.92733448
453 1 10.55857388 0.70390493 6.33514433
454 1 10.55857388 0.70390493 7.74295418
455 1 10.55857388 0.70390493 9.15076403
456 1 10.55857388 0.70390493 10.55857388
457 1 10.55857388 2.11171478 0.70390493
458 1 10.55857388 2.11171478 2.11171478
459 1 10.55857388 2.11171478 3.51952463
460 1 10.55857388 2.11171478 4.92733448
461 1 10.55857388 2.11171478 6.33514433
462 1 10.55857388 2.11171478 7.74295418
463 1 10.55857388 2.11171478 9.15076403
464 1 10.55857388 2.11171478 10.55857388
465 1 10.55857388 3.51952463 0.70390493
466 1 10.55857388 3.51952463 2.11171478
467 1 10.55857388 3.51952463 3.51952463
468 1 10.55857388 3.51952463 4.92733448
469 1 10.55857388 3.51952463 6.33514433
470 1 10.55857388 3.51952463 7.74295418
471 1 10.55857388 3.51952463 9.15076403
472 1 10.55857388 3.51952463 10.55857388
473 1 10.55857388 4.92733448 0.70390493
474 1 10.55857388 4.92733448 2.11171478
475 1 10.55857388 4.92733448 3.51952463
476 1 10.55857388 4.92733448 4.92733448
477 1 10.55857388 4.92733448 6.33514433
478 1 10.55857388 4.92733448 7.74295418
479 1 10.55857388 4.92733448 9.15076403
480 1 10.55857388 4.92733448 10.55857388
481 1 10.55857388 6.33514433 0.70390493
482 1 10.55857388 6.33514433 2.11171478
483 1 10.55857388 6.33514433 3.51952463
484 1 10.55857388 6.33514433 4.92733448
485 1 10.55857388 6.33514433 6.33514433
486 1 10.55857388 6.33514433 7.74295418
487 1 10.55857388 6.33514433 9.15076403
488 1 10.55857388 6.33514433 10.55857388
489 1 10.55857388 7.74295418 0.70390493
490 1 10.55857388 7.74295418 2.11171478
491 1 10.55857388 7.74295418 3.51952463
492 1 10.55857388 7.74295418 4.92733448
493 1 10.55857388 7.74295418 6.33514433
494 1 10.55857388 7.74295418 7.74295418
495 1 10.55857388 7.74295418 9.15076403
496 1 10.55857388 7.74295418 10.55857388
497 1 10.55857388 9.15076403 0.70390493
498 1 10.55857388 9.15076403 2.11171478
499 1 10.55857388 9.15076403 3.51952463
500 1 10.55857388 9.15076403 4.92733448
