LAMMPS Simulation Data
384 atoms
2 atom types

0 97.21 xlo xhi 
0 97.21 ylo yhi 
0 97.21 zlo zhi 

Masses

1 1.0
2 1.0

Atoms

1 1 6.07562500 6.07562500 6.07562500
2 1 6.07562500 6.07562500 18.22687500
3 1 6.07562500 6.07562500 30.37812500
4 1 6.07562500 6.07562500 42.52937500
5 1 6.07562500 6.07562500 54.68062500
6 1 6.07562500 6.07562500 66.83187500
7 1 6.07562500 6.07562500 78.98312500
8 1 6.07562500 6.07562500 91.13437500
9 1 6.07562500 18.22687500 6.07562500
10 1 6.07562500 18.22687500 18.22687500
11 1 6.07562500 18.22687500 30.37812500
12 1 6.07562500 18.22687500 42.52937500
13 1 6.07562500 18.22687500 54.68062500
14 1 6.07562500 18.22687500 66.83187500
15 1 6.07562500 18.22687500 78.98312500
16 1 6.07562500 18.22687500 91.13437500
17 1 6.07562500 30.37812500 6.07562500
18 1 6.07562500 30.37812500 18.22687500
19 1 6.07562500 30.37812500 30.37812500
20 1 6.07562500 30.37812500 42.52937500
21 1 6.07562500 30.37812500 54.68062500
22 1 6.07562500 30.37812500 66.83187500
23 1 6.07562500 30.37812500 78.98312500
24 1 6.07562500 30.37812500 91.13437500
25 1 6.07562500 42.52937500 6.07562500
26 1 6.07562500 42.52937500 18.22687500
27 1 6.07562500 42.52937500 30.37812500
28 1 6.07562500 42.52937500 42.52937500
29 1 6.07562500 42.52937500 54.68062500
30 1 6.07562500 42.52937500 66.83187500
31 1 6.07562500 42.52937500 78.98312500
32 1 6.07562500 42.52937500 91.13437500
33 1 6.07562500 54.68062500 6.07562500
34 1 6.07562500 54.68062500 18.22687500
35 1 6.07562500 54.68062500 30.37812500
36 1 6.07562500 54.68062500 42.52937500
37 1 6.07562500 54.68062500 54.68062500
38 1 6.07562500 54.68062500 66.83187500
39 1 6.07562500 54.68062500 78.98312500
40 1 6.07562500 54.68062500 91.13437500
41 1 6.07562500 66.83187500 6.07562500
42 1 6.07562500 66.83187500 18.22687500
43 1 6.07562500 66.83187500 30.37812500
44 1 6.07562500 66.83187500 42.52937500
45 1 6.07562500 66.83187500 54.68062500
46 1 6.07562500 66.83187500 66.83187500
47 1 6.07562500 66.83187500 78.98312500
48 1 6.07562500 66.83187500 91.13437500
49 1 6.07562500 78.98312500 6.07562500
50 1 6.07562500 78.98312500 18.22687500
51 1 6.07562500 78.98312500 30.37812500
52 1 6.07562500 78.98312500 42.52937500
53 1 6.07562500 78.98312500 54.68062500
54 1 6.07562500 78.98312500 66.83187500
55 1 6.07562500 78.98312500 78.98312500
56 1 6.07562500 78.98312500 91.13437500
57 1 6.07562500 91.13437500 6.07562500
58 1 6.07562500 91.13437500 18.22687500
59 1 6.07562500 91.13437500 30.37812500
60 1 6.07562500 91.13437500 42.52937500
61 1 6.07562500 91.13437500 54.68062500
62 1 6.07562500 91.13437500 66.83187500
63 1 6.07562500 91.13437500 78.98312500
64 1 6.07562500 91.13437500 91.13437500
65 1 18.22687500 6.07562500 6.07562500
66 1 18.22687500 6.07562500 18.22687500
67 1 18.22687500 6.07562500 30.37812500
68 1 18.22687500 6.07562500 42.52937500
69 1 18.22687500 6.07562500 54.68062500
70 1 18.22687500 6.07562500 66.83187500
71 1 18.22687500 6.07562500 78.98312500
72 1 18.22687500 6.07562500 91.13437500
73 1 18.22687500 18.22687500 6.07562500
74 1 18.22687500 18.22687500 18.22687500
75 1 18.22687500 18.22687500 30.37812500
76 1 18.22687500 18.22687500 42.52937500
77 1 18.22687500 18.22687500 54.68062500
78 1 18.22687500 18.22687500 66.83187500
79 1 18.22687500 18.22687500 78.98312500
80 1 18.22687500 18.22687500 91.13437500
81 1 18.22687500 30.37812500 6.07562500
82 1 18.22687500 30.37812500 18.22687500
83 1 18.22687500 30.37812500 30.37812500
84 1 18.22687500 30.37812500 42.52937500
85 1 18.22687500 30.37812500 54.68062500
86 1 18.22687500 30.37812500 66.83187500
87 1 18.22687500 30.37812500 78.98312500
88 1 18.22687500 30.37812500 91.13437500
89 1 18.22687500 42.52937500 6.07562500
90 1 18.22687500 42.52937500 18.22687500
91 1 18.22687500 42.52937500 30.37812500
92 1 18.22687500 42.52937500 42.52937500
93 1 18.22687500 42.52937500 54.68062500
94 1 18.22687500 42.52937500 66.83187500
95 1 18.22687500 42.52937500 78.98312500
96 1 18.22687500 42.52937500 91.13437500
97 1 18.22687500 54.68062500 6.07562500
98 1 18.22687500 54.68062500 18.22687500
99 1 18.22687500 54.68062500 30.37812500
100 1 18.22687500 54.68062500 42.52937500
101 1 18.22687500 54.68062500 54.68062500
102 1 18.22687500 54.68062500 66.83187500
103 1 18.22687500 54.68062500 78.98312500
104 1 18.22687500 54.68062500 91.13437500
105 1 18.22687500 66.83187500 6.07562500
106 1 18.22687500 66.83187500 18.22687500
107 1 18.22687500 66.83187500 30.37812500
108 1 18.22687500 66.83187500 42.52937500
109 1 18.22687500 66.83187500 54.68062500
110 1 18.22687500 66.83187500 66.83187500
111 1 18.22687500 66.83187500 78.98312500
112 1 18.22687500 66.83187500 91.13437500
113 1 18.22687500 78.98312500 6.07562500
114 1 18.22687500 78.98312500 18.22687500
115 1 18.22687500 78.98312500 30.37812500
116 1 18.22687500 78.98312500 42.52937500
117 1 18.22687500 78.98312500 54.68062500
118 1 18.22687500 78.98312500 66.83187500
119 1 18.22687500 78.98312500 78.98312500
120 1 18.22687500 78.98312500 91.13437500
121 1 18.22687500 91.13437500 6.07562500
122 1 18.22687500 91.13437500 18.22687500
123 1 18.22687500 91.13437500 30.37812500
124 1 18.22687500 91.13437500 42.52937500
125 1 18.22687500 91.13437500 54.68062500
126 1 18.22687500 91.13437500 66.83187500
127 1 18.22687500 91.13437500 78.98312500
128 1 18.22687500 91.13437500 91.13437500
129 2 30.37812500 6.07562500 6.07562500
130 2 30.37812500 6.07562500 18.22687500
131 2 30.37812500 6.07562500 30.37812500
132 2 30.37812500 6.07562500 42.52937500
133 2 30.37812500 6.07562500 54.68062500
134 2 30.37812500 6.07562500 66.83187500
135 2 30.37812500 6.07562500 78.98312500
136 2 30.37812500 6.07562500 91.13437500
137 2 30.37812500 18.22687500 6.07562500
138 2 30.37812500 18.22687500 18.22687500
139 2 30.37812500 18.22687500 30.37812500
140 2 30.37812500 18.22687500 42.52937500
141 2 30.37812500 18.22687500 54.68062500
142 2 30.37812500 18.22687500 66.83187500
143 2 30.37812500 18.22687500 78.98312500
144 2 30.37812500 18.22687500 91.13437500
145 2 30.37812500 30.37812500 6.07562500
146 2 30.37812500 30.37812500 18.22687500
147 2 30.37812500 30.37812500 30.37812500
148 2 30.37812500 30.37812500 42.52937500
149 2 30.37812500 30.37812500 54.68062500
150 2 30.37812500 30.37812500 66.83187500
151 2 30.37812500 30.37812500 78.98312500
152 2 30.37812500 30.37812500 91.13437500
153 2 30.37812500 42.52937500 6.07562500
154 2 30.37812500 42.52937500 18.22687500
155 2 30.37812500 42.52937500 30.37812500
156 2 30.37812500 42.52937500 42.52937500
157 2 30.37812500 42.52937500 54.68062500
158 2 30.37812500 42.52937500 66.83187500
159 2 30.37812500 42.52937500 78.98312500
160 2 30.37812500 42.52937500 91.13437500
161 2 30.37812500 54.68062500 6.07562500
162 2 30.37812500 54.68062500 18.22687500
163 2 30.37812500 54.68062500 30.37812500
164 2 30.37812500 54.68062500 42.52937500
165 2 30.37812500 54.68062500 54.68062500
166 2 30.37812500 54.68062500 66.83187500
167 2 30.37812500 54.68062500 78.98312500
168 2 30.37812500 54.68062500 91.13437500
169 2 30.37812500 66.83187500 6.07562500
170 2 30.37812500 66.83187500 18.22687500
171 2 30.37812500 66.83187500 30.37812500
172 2 30.37812500 66.83187500 42.52937500
173 2 30.37812500 66.83187500 54.68062500
174 2 30.37812500 66.83187500 66.83187500
175 2 30.37812500 66.83187500 78.98312500
176 2 30.37812500 66.83187500 91.13437500
177 2 30.37812500 78.98312500 6.07562500
178 2 30.37812500 78.98312500 18.22687500
179 2 30.37812500 78.98312500 30.37812500
180 2 30.37812500 78.98312500 42.52937500
181 2 30.37812500 78.98312500 54.68062500
182 2 30.37812500 78.98312500 66.83187500
183 2 30.37812500 78.98312500 78.98312500
184 2 30.37812500 78.98312500 91.13437500
185 2 30.37812500 91.13437500 6.07562500
186 2 30.37812500 91.13437500 18.22687500
187 2 30.37812500 91.13437500 30.37812500
188 2 30.37812500 91.13437500 42.52937500
189 2 30.37812500 91.13437500 54.68062500
190 2 30.37812500 91.13437500 66.83187500
191 2 30.37812500 91.13437500 78.98312500
192 2 30.37812500 91.13437500 91.13437500
193 2 42.52937500 6.07562500 6.07562500
194 2 42.52937500 6.07562500 18.22687500
195 2 42.52937500 6.07562500 30.37812500
196 2 42.52937500 6.07562500 42.52937500
197 2 42.52937500 6.07562500 54.68062500
198 2 42.52937500 6.07562500 66.83187500
199 2 42.52937500 6.07562500 78.98312500
200 2 42.52937500 6.07562500 91.13437500
201 2 42.52937500 18.22687500 6.07562500
202 2 42.52937500 18.22687500 18.22687500
203 2 42.52937500 18.22687500 30.37812500
204 2 42.52937500 18.22687500 42.52937500
205 2 42.52937500 18.22687500 54.68062500
206 2 42.52937500 18.22687500 66.83187500
207 2 42.52937500 18.22687500 78.98312500
208 2 42.52937500 18.22687500 91.13437500
209 2 42.52937500 30.37812500 6.07562500
210 2 42.52937500 30.37812500 18.22687500
211 2 42.52937500 30.37812500 30.37812500
212 2 42.52937500 30.37812500 42.52937500
213 2 42.52937500 30.37812500 54.68062500
214 2 42.52937500 30.37812500 66.83187500
215 2 42.52937500 30.37812500 78.98312500
216 2 42.52937500 30.37812500 91.13437500
217 2 42.52937500 42.52937500 6.07562500
218 2 42.52937500 42.52937500 18.22687500
219 2 42.52937500 42.52937500 30.37812500
220 2 42.52937500 42.52937500 42.52937500
221 2 42.52937500 42.52937500 54.68062500
222 2 42.52937500 42.52937500 66.83187500
223 2 42.52937500 42.52937500 78.98312500
224 2 42.52937500 42.52937500 91.13437500
225 2 42.52937500 54.68062500 6.07562500
226 2 42.52937500 54.68062500 18.22687500
227 2 42.52937500 54.68062500 30.37812500
228 2 42.52937500 54.68062500 42.52937500
229 2 42.52937500 54.68062500 54.68062500
230 2 42.52937500 54.68062500 66.83187500
231 2 42.52937500 54.68062500 78.98312500
232 2 42.52937500 54.68062500 91.13437500
233 2 42.52937500 66.83187500 6.07562500
234 2 42.52937500 66.83187500 18.22687500
235 2 42.52937500 66.83187500 30.37812500
236 2 42.52937500 66.83187500 42.52937500
237 2 42.52937500 66.83187500 54.68062500
238 2 42.52937500 66.83187500 66.83187500
239 2 42.52937500 66.83187500 78.98312500
240 2 42.52937500 66.83187500 91.13437500
241 2 42.52937500 78.98312500 6.07562500
242 2 42.52937500 78.98312500 18.22687500
243 2 42.52937500 78.98312500 30.37812500
244 2 42.52937500 78.98312500 42.52937500
245 2 42.52937500 78.98312500 54.68062500
246 2 42.52937500 78.98312500 66.83187500
247 2 42.52937500 78.98312500 78.98312500
248 2 42.52937500 78.98312500 91.13437500
249 2 42.52937500 91.13437500 6.07562500
250 2 42.52937500 91.13437500 18.22687500
251 2 42.52937500 91.13437500 30.37812500
252 2 42.52937500 91.13437500 42.52937500
253 2 42.52937500 91.13437500 54.68062500
254 2 42.52937500 91.13437500 66.83187500
255 2 42.52937500 91.13437500 78.98312500
256 2 42.52937500 91.13437500 91.13437500
257 2 54.68062500 6.07562500 6.07562500
258 2 54.68062500 6.07562500 18.22687500
259 2 54.68062500 6.07562500 30.37812500
260 2 54.68062500 6.07562500 42.52937500
261 2 54.68062500 6.07562500 54.68062500
262 2 54.68062500 6.07562500 66.83187500
263 2 54.68062500 6.07562500 78.98312500
264 2 54.68062500 6.07562500 91.13437500
265 2 54.68062500 18.22687500 6.07562500
266 2 54.68062500 18.22687500 18.22687500
267 2 54.68062500 18.22687500 30.37812500
268 2 54.68062500 18.22687500 42.52937500
269 2 54.68062500 18.22687500 54.68062500
270 2 54.68062500 18.22687500 66.83187500
271 2 54.68062500 18.22687500 78.98312500
272 2 54.68062500 18.22687500 91.13437500
273 2 54.68062500 30.37812500 6.07562500
274 2 54.68062500 30.37812500 18.22687500
275 2 54.68062500 30.37812500 30.37812500
276 2 54.68062500 30.37812500 42.52937500
277 2 54.68062500 30.37812500 54.68062500
278 2 54.68062500 30.37812500 66.83187500
279 2 54.68062500 30.37812500 78.98312500
280 2 54.68062500 30.37812500 91.13437500
281 2 54.68062500 42.52937500 6.07562500
282 2 54.68062500 42.52937500 18.22687500
283 2 54.68062500 42.52937500 30.37812500
284 2 54.68062500 42.52937500 42.52937500
285 2 54.68062500 42.52937500 54.68062500
286 2 54.68062500 42.52937500 66.83187500
287 2 54.68062500 42.52937500 78.98312500
288 2 54.68062500 42.52937500 91.13437500
289 2 54.68062500 54.68062500 6.07562500
290 2 54.68062500 54.68062500 18.22687500
291 2 54.68062500 54.68062500 30.37812500
292 2 54.68062500 54.68062500 42.52937500
293 2 54.68062500 54.68062500 54.68062500
294 2 54.68062500 54.68062500 66.83187500
295 2 54.68062500 54.68062500 78.98312500
296 2 54.68062500 54.68062500 91.13437500
297 2 54.68062500 66.83187500 6.07562500
298 2 54.68062500 66.83187500 18.22687500
299 2 54.68062500 66.83187500 30.37812500
300 2 54.68062500 66.83187500 42.52937500
301 2 54.68062500 66.83187500 54.68062500
302 2 54.68062500 66.83187500 66.83187500
303 2 54.68062500 66.83187500 78.98312500
304 2 54.68062500 66.83187500 91.13437500
305 2 54.68062500 78.98312500 6.07562500
306 2 54.68062500 78.98312500 18.22687500
307 2 54.68062500 78.98312500 30.37812500
308 2 54.68062500 78.98312500 42.52937500
309 2 54.68062500 78.98312500 54.68062500
310 2 54.68062500 78.98312500 66.83187500
311 2 54.68062500 78.98312500 78.98312500
312 2 54.68062500 78.98312500 91.13437500
313 2 54.68062500 91.13437500 6.07562500
314 2 54.68062500 91.13437500 18.22687500
315 2 54.68062500 91.13437500 30.37812500
316 2 54.68062500 91.13437500 42.52937500
317 2 54.68062500 91.13437500 54.68062500
318 2 54.68062500 91.13437500 66.83187500
319 2 54.68062500 91.13437500 78.98312500
320 2 54.68062500 91.13437500 91.13437500
321 2 66.83187500 6.07562500 6.07562500
322 2 66.83187500 6.07562500 18.22687500
323 2 66.83187500 6.07562500 30.37812500
324 2 66.83187500 6.07562500 42.52937500
325 2 66.83187500 6.07562500 54.68062500
326 2 66.83187500 6.07562500 66.83187500
327 2 66.83187500 6.07562500 78.98312500
328 2 66.83187500 6.07562500 91.13437500
329 2 66.83187500 18.22687500 6.07562500
330 2 66.83187500 18.22687500 18.22687500
331 2 66.83187500 18.22687500 30.37812500
332 2 66.83187500 18.22687500 42.52937500
333 2 66.83187500 18.22687500 54.68062500
334 2 66.83187500 18.22687500 66.83187500
335 2 66.83187500 18.22687500 78.98312500
336 2 66.83187500 18.22687500 91.13437500
337 2 66.83187500 30.37812500 6.07562500
338 2 66.83187500 30.37812500 18.22687500
339 2 66.83187500 30.37812500 30.37812500
340 2 66.83187500 30.37812500 42.52937500
341 2 66.83187500 30.37812500 54.68062500
342 2 66.83187500 30.37812500 66.83187500
343 2 66.83187500 30.37812500 78.98312500
344 2 66.83187500 30.37812500 91.13437500
345 2 66.83187500 42.52937500 6.07562500
346 2 66.83187500 42.52937500 18.22687500
347 2 66.83187500 42.52937500 30.37812500
348 2 66.83187500 42.52937500 42.52937500
349 2 66.83187500 42.52937500 54.68062500
350 2 66.83187500 42.52937500 66.83187500
351 2 66.83187500 42.52937500 78.98312500
352 2 66.83187500 42.52937500 91.13437500
353 2 66.83187500 54.68062500 6.07562500
354 2 66.83187500 54.68062500 18.22687500
355 2 66.83187500 54.68062500 30.37812500
356 2 66.83187500 54.68062500 42.52937500
357 2 66.83187500 54.68062500 54.68062500
358 2 66.83187500 54.68062500 66.83187500
359 2 66.83187500 54.68062500 78.98312500
360 2 66.83187500 54.68062500 91.13437500
361 2 66.83187500 66.83187500 6.07562500
362 2 66.83187500 66.83187500 18.22687500
363 2 66.83187500 66.83187500 30.37812500
364 2 66.83187500 66.83187500 42.52937500
365 2 66.83187500 66.83187500 54.68062500
366 2 66.83187500 66.83187500 66.83187500
367 2 66.83187500 66.83187500 78.98312500
368 2 66.83187500 66.83187500 91.13437500
369 2 66.83187500 78.98312500 6.07562500
370 2 66.83187500 78.98312500 18.22687500
371 2 66.83187500 78.98312500 30.37812500
372 2 66.83187500 78.98312500 42.52937500
373 2 66.83187500 78.98312500 54.68062500
374 2 66.83187500 78.98312500 66.83187500
375 2 66.83187500 78.98312500 78.98312500
376 2 66.83187500 78.98312500 91.13437500
377 2 66.83187500 91.13437500 6.07562500
378 2 66.83187500 91.13437500 18.22687500
379 2 66.83187500 91.13437500 30.37812500
380 2 66.83187500 91.13437500 42.52937500
381 2 66.83187500 91.13437500 54.68062500
382 2 66.83187500 91.13437500 66.83187500
383 2 66.83187500 91.13437500 78.98312500
384 2 66.83187500 91.13437500 91.13437500
