LAMMPS Simulation Data
5832 atoms
2 atom types

0 41.77 xlo xhi 
0 41.77 ylo yhi 
0 41.77 zlo zhi 

Masses

1 1.0
2 1.0

Atoms

1 1 1.16027778 1.16027778 1.16027778
2 1 1.16027778 1.16027778 3.48083333
3 1 1.16027778 1.16027778 5.80138889
4 1 1.16027778 1.16027778 8.12194444
5 1 1.16027778 1.16027778 10.44250000
6 1 1.16027778 1.16027778 12.76305556
7 1 1.16027778 1.16027778 15.08361111
8 1 1.16027778 1.16027778 17.40416667
9 1 1.16027778 1.16027778 19.72472222
10 1 1.16027778 1.16027778 22.04527778
11 1 1.16027778 1.16027778 24.36583333
12 1 1.16027778 1.16027778 26.68638889
13 1 1.16027778 1.16027778 29.00694444
14 1 1.16027778 1.16027778 31.32750000
15 1 1.16027778 1.16027778 33.64805556
16 1 1.16027778 1.16027778 35.96861111
17 1 1.16027778 1.16027778 38.28916667
18 1 1.16027778 1.16027778 40.60972222
19 1 1.16027778 3.48083333 1.16027778
20 1 1.16027778 3.48083333 3.48083333
21 1 1.16027778 3.48083333 5.80138889
22 1 1.16027778 3.48083333 8.12194444
23 1 1.16027778 3.48083333 10.44250000
24 1 1.16027778 3.48083333 12.76305556
25 1 1.16027778 3.48083333 15.08361111
26 1 1.16027778 3.48083333 17.40416667
27 1 1.16027778 3.48083333 19.72472222
28 1 1.16027778 3.48083333 22.04527778
29 1 1.16027778 3.48083333 24.36583333
30 1 1.16027778 3.48083333 26.68638889
31 1 1.16027778 3.48083333 29.00694444
32 1 1.16027778 3.48083333 31.32750000
33 1 1.16027778 3.48083333 33.64805556
34 1 1.16027778 3.48083333 35.96861111
35 1 1.16027778 3.48083333 38.28916667
36 1 1.16027778 3.48083333 40.60972222
37 1 1.16027778 5.80138889 1.16027778
38 1 1.16027778 5.80138889 3.48083333
39 1 1.16027778 5.80138889 5.80138889
40 1 1.16027778 5.80138889 8.12194444
41 1 1.16027778 5.80138889 10.44250000
42 1 1.16027778 5.80138889 12.76305556
43 1 1.16027778 5.80138889 15.08361111
44 1 1.16027778 5.80138889 17.40416667
45 1 1.16027778 5.80138889 19.72472222
46 1 1.16027778 5.80138889 22.04527778
47 1 1.16027778 5.80138889 24.36583333
48 1 1.16027778 5.80138889 26.68638889
49 1 1.16027778 5.80138889 29.00694444
50 1 1.16027778 5.80138889 31.32750000
51 1 1.16027778 5.80138889 33.64805556
52 1 1.16027778 5.80138889 35.96861111
53 1 1.16027778 5.80138889 38.28916667
54 1 1.16027778 5.80138889 40.60972222
55 1 1.16027778 8.12194444 1.16027778
56 1 1.16027778 8.12194444 3.48083333
57 1 1.16027778 8.12194444 5.80138889
58 1 1.16027778 8.12194444 8.12194444
59 1 1.16027778 8.12194444 10.44250000
60 1 1.16027778 8.12194444 12.76305556
61 1 1.16027778 8.12194444 15.08361111
62 1 1.16027778 8.12194444 17.40416667
63 1 1.16027778 8.12194444 19.72472222
64 1 1.16027778 8.12194444 22.04527778
65 1 1.16027778 8.12194444 24.36583333
66 1 1.16027778 8.12194444 26.68638889
67 1 1.16027778 8.12194444 29.00694444
68 1 1.16027778 8.12194444 31.32750000
69 1 1.16027778 8.12194444 33.64805556
70 1 1.16027778 8.12194444 35.96861111
71 1 1.16027778 8.12194444 38.28916667
72 1 1.16027778 8.12194444 40.60972222
73 1 1.16027778 10.44250000 1.16027778
74 1 1.16027778 10.44250000 3.48083333
75 1 1.16027778 10.44250000 5.80138889
76 1 1.16027778 10.44250000 8.12194444
77 1 1.16027778 10.44250000 10.44250000
78 1 1.16027778 10.44250000 12.76305556
79 1 1.16027778 10.44250000 15.08361111
80 1 1.16027778 10.44250000 17.40416667
81 1 1.16027778 10.44250000 19.72472222
82 1 1.16027778 10.44250000 22.04527778
83 1 1.16027778 10.44250000 24.36583333
84 1 1.16027778 10.44250000 26.68638889
85 1 1.16027778 10.44250000 29.00694444
86 1 1.16027778 10.44250000 31.32750000
87 1 1.16027778 10.44250000 33.64805556
88 1 1.16027778 10.44250000 35.96861111
89 1 1.16027778 10.44250000 38.28916667
90 1 1.16027778 10.44250000 40.60972222
91 1 1.16027778 12.76305556 1.16027778
92 1 1.16027778 12.76305556 3.48083333
93 1 1.16027778 12.76305556 5.80138889
94 1 1.16027778 12.76305556 8.12194444
95 1 1.16027778 12.76305556 10.44250000
96 1 1.16027778 12.76305556 12.76305556
97 1 1.16027778 12.76305556 15.08361111
98 1 1.16027778 12.76305556 17.40416667
99 1 1.16027778 12.76305556 19.72472222
100 1 1.16027778 12.76305556 22.04527778
101 1 1.16027778 12.76305556 24.36583333
102 1 1.16027778 12.76305556 26.68638889
103 1 1.16027778 12.76305556 29.00694444
104 1 1.16027778 12.76305556 31.32750000
105 1 1.16027778 12.76305556 33.64805556
106 1 1.16027778 12.76305556 35.96861111
107 1 1.16027778 12.76305556 38.28916667
108 1 1.16027778 12.76305556 40.60972222
109 1 1.16027778 15.08361111 1.16027778
110 1 1.16027778 15.08361111 3.48083333
111 1 1.16027778 15.08361111 5.80138889
112 1 1.16027778 15.08361111 8.12194444
113 1 1.16027778 15.08361111 10.44250000
114 1 1.16027778 15.08361111 12.76305556
115 1 1.16027778 15.08361111 15.08361111
116 1 1.16027778 15.08361111 17.40416667
117 1 1.16027778 15.08361111 19.72472222
118 1 1.16027778 15.08361111 22.04527778
119 1 1.16027778 15.08361111 24.36583333
120 1 1.16027778 15.08361111 26.68638889
121 1 1.16027778 15.08361111 29.00694444
122 1 1.16027778 15.08361111 31.32750000
123 1 1.16027778 15.08361111 33.64805556
124 1 1.16027778 15.08361111 35.96861111
125 1 1.16027778 15.08361111 38.28916667
126 1 1.16027778 15.08361111 40.60972222
127 1 1.16027778 17.40416667 1.16027778
128 1 1.16027778 17.40416667 3.48083333
129 1 1.16027778 17.40416667 5.80138889
130 1 1.16027778 17.40416667 8.12194444
131 1 1.16027778 17.40416667 10.44250000
132 1 1.16027778 17.40416667 12.76305556
133 1 1.16027778 17.40416667 15.08361111
134 1 1.16027778 17.40416667 17.40416667
135 1 1.16027778 17.40416667 19.72472222
136 1 1.16027778 17.40416667 22.04527778
137 1 1.16027778 17.40416667 24.36583333
138 1 1.16027778 17.40416667 26.68638889
139 1 1.16027778 17.40416667 29.00694444
140 1 1.16027778 17.40416667 31.32750000
141 1 1.16027778 17.40416667 33.64805556
142 1 1.16027778 17.40416667 35.96861111
143 1 1.16027778 17.40416667 38.28916667
144 1 1.16027778 17.40416667 40.60972222
145 1 1.16027778 19.72472222 1.16027778
146 1 1.16027778 19.72472222 3.48083333
147 1 1.16027778 19.72472222 5.80138889
148 1 1.16027778 19.72472222 8.12194444
149 1 1.16027778 19.72472222 10.44250000
150 1 1.16027778 19.72472222 12.76305556
151 1 1.16027778 19.72472222 15.08361111
152 1 1.16027778 19.72472222 17.40416667
153 1 1.16027778 19.72472222 19.72472222
154 1 1.16027778 19.72472222 22.04527778
155 1 1.16027778 19.72472222 24.36583333
156 1 1.16027778 19.72472222 26.68638889
157 1 1.16027778 19.72472222 29.00694444
158 1 1.16027778 19.72472222 31.32750000
159 1 1.16027778 19.72472222 33.64805556
160 1 1.16027778 19.72472222 35.96861111
161 1 1.16027778 19.72472222 38.28916667
162 1 1.16027778 19.72472222 40.60972222
163 1 1.16027778 22.04527778 1.16027778
164 1 1.16027778 22.04527778 3.48083333
165 1 1.16027778 22.04527778 5.80138889
166 1 1.16027778 22.04527778 8.12194444
167 1 1.16027778 22.04527778 10.44250000
168 1 1.16027778 22.04527778 12.76305556
169 1 1.16027778 22.04527778 15.08361111
170 1 1.16027778 22.04527778 17.40416667
171 1 1.16027778 22.04527778 19.72472222
172 1 1.16027778 22.04527778 22.04527778
173 1 1.16027778 22.04527778 24.36583333
174 1 1.16027778 22.04527778 26.68638889
175 1 1.16027778 22.04527778 29.00694444
176 1 1.16027778 22.04527778 31.32750000
177 1 1.16027778 22.04527778 33.64805556
178 1 1.16027778 22.04527778 35.96861111
179 1 1.16027778 22.04527778 38.28916667
180 1 1.16027778 22.04527778 40.60972222
181 1 1.16027778 24.36583333 1.16027778
182 1 1.16027778 24.36583333 3.48083333
183 1 1.16027778 24.36583333 5.80138889
184 1 1.16027778 24.36583333 8.12194444
185 1 1.16027778 24.36583333 10.44250000
186 1 1.16027778 24.36583333 12.76305556
187 1 1.16027778 24.36583333 15.08361111
188 1 1.16027778 24.36583333 17.40416667
189 1 1.16027778 24.36583333 19.72472222
190 1 1.16027778 24.36583333 22.04527778
191 1 1.16027778 24.36583333 24.36583333
192 1 1.16027778 24.36583333 26.68638889
193 1 1.16027778 24.36583333 29.00694444
194 1 1.16027778 24.36583333 31.32750000
195 1 1.16027778 24.36583333 33.64805556
196 1 1.16027778 24.36583333 35.96861111
197 1 1.16027778 24.36583333 38.28916667
198 1 1.16027778 24.36583333 40.60972222
199 1 1.16027778 26.68638889 1.16027778
200 1 1.16027778 26.68638889 3.48083333
201 1 1.16027778 26.68638889 5.80138889
202 1 1.16027778 26.68638889 8.12194444
203 1 1.16027778 26.68638889 10.44250000
204 1 1.16027778 26.68638889 12.76305556
205 1 1.16027778 26.68638889 15.08361111
206 1 1.16027778 26.68638889 17.40416667
207 1 1.16027778 26.68638889 19.72472222
208 1 1.16027778 26.68638889 22.04527778
209 1 1.16027778 26.68638889 24.36583333
210 1 1.16027778 26.68638889 26.68638889
211 1 1.16027778 26.68638889 29.00694444
212 1 1.16027778 26.68638889 31.32750000
213 1 1.16027778 26.68638889 33.64805556
214 1 1.16027778 26.68638889 35.96861111
215 1 1.16027778 26.68638889 38.28916667
216 1 1.16027778 26.68638889 40.60972222
217 1 1.16027778 29.00694444 1.16027778
218 1 1.16027778 29.00694444 3.48083333
219 1 1.16027778 29.00694444 5.80138889
220 1 1.16027778 29.00694444 8.12194444
221 1 1.16027778 29.00694444 10.44250000
222 1 1.16027778 29.00694444 12.76305556
223 1 1.16027778 29.00694444 15.08361111
224 1 1.16027778 29.00694444 17.40416667
225 1 1.16027778 29.00694444 19.72472222
226 1 1.16027778 29.00694444 22.04527778
227 1 1.16027778 29.00694444 24.36583333
228 1 1.16027778 29.00694444 26.68638889
229 1 1.16027778 29.00694444 29.00694444
230 1 1.16027778 29.00694444 31.32750000
231 1 1.16027778 29.00694444 33.64805556
232 1 1.16027778 29.00694444 35.96861111
233 1 1.16027778 29.00694444 38.28916667
234 1 1.16027778 29.00694444 40.60972222
235 1 1.16027778 31.32750000 1.16027778
236 1 1.16027778 31.32750000 3.48083333
237 1 1.16027778 31.32750000 5.80138889
238 1 1.16027778 31.32750000 8.12194444
239 1 1.16027778 31.32750000 10.44250000
240 1 1.16027778 31.32750000 12.76305556
241 1 1.16027778 31.32750000 15.08361111
242 1 1.16027778 31.32750000 17.40416667
243 1 1.16027778 31.32750000 19.72472222
244 1 1.16027778 31.32750000 22.04527778
245 1 1.16027778 31.32750000 24.36583333
246 1 1.16027778 31.32750000 26.68638889
247 1 1.16027778 31.32750000 29.00694444
248 1 1.16027778 31.32750000 31.32750000
249 1 1.16027778 31.32750000 33.64805556
250 1 1.16027778 31.32750000 35.96861111
251 1 1.16027778 31.32750000 38.28916667
252 1 1.16027778 31.32750000 40.60972222
253 1 1.16027778 33.64805556 1.16027778
254 1 1.16027778 33.64805556 3.48083333
255 1 1.16027778 33.64805556 5.80138889
256 1 1.16027778 33.64805556 8.12194444
257 1 1.16027778 33.64805556 10.44250000
258 1 1.16027778 33.64805556 12.76305556
259 1 1.16027778 33.64805556 15.08361111
260 1 1.16027778 33.64805556 17.40416667
261 1 1.16027778 33.64805556 19.72472222
262 1 1.16027778 33.64805556 22.04527778
263 1 1.16027778 33.64805556 24.36583333
264 1 1.16027778 33.64805556 26.68638889
265 1 1.16027778 33.64805556 29.00694444
266 1 1.16027778 33.64805556 31.32750000
267 1 1.16027778 33.64805556 33.64805556
268 1 1.16027778 33.64805556 35.96861111
269 1 1.16027778 33.64805556 38.28916667
270 1 1.16027778 33.64805556 40.60972222
271 1 1.16027778 35.96861111 1.16027778
272 1 1.16027778 35.96861111 3.48083333
273 1 1.16027778 35.96861111 5.80138889
274 1 1.16027778 35.96861111 8.12194444
275 1 1.16027778 35.96861111 10.44250000
276 1 1.16027778 35.96861111 12.76305556
277 1 1.16027778 35.96861111 15.08361111
278 1 1.16027778 35.96861111 17.40416667
279 1 1.16027778 35.96861111 19.72472222
280 1 1.16027778 35.96861111 22.04527778
281 1 1.16027778 35.96861111 24.36583333
282 1 1.16027778 35.96861111 26.68638889
283 1 1.16027778 35.96861111 29.00694444
284 1 1.16027778 35.96861111 31.32750000
285 1 1.16027778 35.96861111 33.64805556
286 1 1.16027778 35.96861111 35.96861111
287 1 1.16027778 35.96861111 38.28916667
288 1 1.16027778 35.96861111 40.60972222
289 1 1.16027778 38.28916667 1.16027778
290 1 1.16027778 38.28916667 3.48083333
291 1 1.16027778 38.28916667 5.80138889
292 1 1.16027778 38.28916667 8.12194444
293 1 1.16027778 38.28916667 10.44250000
294 1 1.16027778 38.28916667 12.76305556
295 1 1.16027778 38.28916667 15.08361111
296 1 1.16027778 38.28916667 17.40416667
297 1 1.16027778 38.28916667 19.72472222
298 1 1.16027778 38.28916667 22.04527778
299 1 1.16027778 38.28916667 24.36583333
300 1 1.16027778 38.28916667 26.68638889
301 1 1.16027778 38.28916667 29.00694444
302 1 1.16027778 38.28916667 31.32750000
303 1 1.16027778 38.28916667 33.64805556
304 1 1.16027778 38.28916667 35.96861111
305 1 1.16027778 38.28916667 38.28916667
306 1 1.16027778 38.28916667 40.60972222
307 1 1.16027778 40.60972222 1.16027778
308 1 1.16027778 40.60972222 3.48083333
309 1 1.16027778 40.60972222 5.80138889
310 1 1.16027778 40.60972222 8.12194444
311 1 1.16027778 40.60972222 10.44250000
312 1 1.16027778 40.60972222 12.76305556
313 1 1.16027778 40.60972222 15.08361111
314 1 1.16027778 40.60972222 17.40416667
315 1 1.16027778 40.60972222 19.72472222
316 1 1.16027778 40.60972222 22.04527778
317 1 1.16027778 40.60972222 24.36583333
318 1 1.16027778 40.60972222 26.68638889
319 1 1.16027778 40.60972222 29.00694444
320 1 1.16027778 40.60972222 31.32750000
321 1 1.16027778 40.60972222 33.64805556
322 1 1.16027778 40.60972222 35.96861111
323 1 1.16027778 40.60972222 38.28916667
324 1 1.16027778 40.60972222 40.60972222
325 1 3.48083333 1.16027778 1.16027778
326 1 3.48083333 1.16027778 3.48083333
327 1 3.48083333 1.16027778 5.80138889
328 1 3.48083333 1.16027778 8.12194444
329 1 3.48083333 1.16027778 10.44250000
330 1 3.48083333 1.16027778 12.76305556
331 1 3.48083333 1.16027778 15.08361111
332 1 3.48083333 1.16027778 17.40416667
333 1 3.48083333 1.16027778 19.72472222
334 1 3.48083333 1.16027778 22.04527778
335 1 3.48083333 1.16027778 24.36583333
336 1 3.48083333 1.16027778 26.68638889
337 1 3.48083333 1.16027778 29.00694444
338 1 3.48083333 1.16027778 31.32750000
339 1 3.48083333 1.16027778 33.64805556
340 1 3.48083333 1.16027778 35.96861111
341 1 3.48083333 1.16027778 38.28916667
342 1 3.48083333 1.16027778 40.60972222
343 1 3.48083333 3.48083333 1.16027778
344 1 3.48083333 3.48083333 3.48083333
345 1 3.48083333 3.48083333 5.80138889
346 1 3.48083333 3.48083333 8.12194444
347 1 3.48083333 3.48083333 10.44250000
348 1 3.48083333 3.48083333 12.76305556
349 1 3.48083333 3.48083333 15.08361111
350 1 3.48083333 3.48083333 17.40416667
351 1 3.48083333 3.48083333 19.72472222
352 1 3.48083333 3.48083333 22.04527778
353 1 3.48083333 3.48083333 24.36583333
354 1 3.48083333 3.48083333 26.68638889
355 1 3.48083333 3.48083333 29.00694444
356 1 3.48083333 3.48083333 31.32750000
357 1 3.48083333 3.48083333 33.64805556
358 1 3.48083333 3.48083333 35.96861111
359 1 3.48083333 3.48083333 38.28916667
360 1 3.48083333 3.48083333 40.60972222
361 1 3.48083333 5.80138889 1.16027778
362 1 3.48083333 5.80138889 3.48083333
363 1 3.48083333 5.80138889 5.80138889
364 1 3.48083333 5.80138889 8.12194444
365 1 3.48083333 5.80138889 10.44250000
366 1 3.48083333 5.80138889 12.76305556
367 1 3.48083333 5.80138889 15.08361111
368 1 3.48083333 5.80138889 17.40416667
369 1 3.48083333 5.80138889 19.72472222
370 1 3.48083333 5.80138889 22.04527778
371 1 3.48083333 5.80138889 24.36583333
372 1 3.48083333 5.80138889 26.68638889
373 1 3.48083333 5.80138889 29.00694444
374 1 3.48083333 5.80138889 31.32750000
375 1 3.48083333 5.80138889 33.64805556
376 1 3.48083333 5.80138889 35.96861111
377 1 3.48083333 5.80138889 38.28916667
378 1 3.48083333 5.80138889 40.60972222
379 1 3.48083333 8.12194444 1.16027778
380 1 3.48083333 8.12194444 3.48083333
381 1 3.48083333 8.12194444 5.80138889
382 1 3.48083333 8.12194444 8.12194444
383 1 3.48083333 8.12194444 10.44250000
384 1 3.48083333 8.12194444 12.76305556
385 1 3.48083333 8.12194444 15.08361111
386 1 3.48083333 8.12194444 17.40416667
387 1 3.48083333 8.12194444 19.72472222
388 1 3.48083333 8.12194444 22.04527778
389 1 3.48083333 8.12194444 24.36583333
390 1 3.48083333 8.12194444 26.68638889
391 1 3.48083333 8.12194444 29.00694444
392 1 3.48083333 8.12194444 31.32750000
393 1 3.48083333 8.12194444 33.64805556
394 1 3.48083333 8.12194444 35.96861111
395 1 3.48083333 8.12194444 38.28916667
396 1 3.48083333 8.12194444 40.60972222
397 1 3.48083333 10.44250000 1.16027778
398 1 3.48083333 10.44250000 3.48083333
399 1 3.48083333 10.44250000 5.80138889
400 1 3.48083333 10.44250000 8.12194444
401 1 3.48083333 10.44250000 10.44250000
402 1 3.48083333 10.44250000 12.76305556
403 1 3.48083333 10.44250000 15.08361111
404 1 3.48083333 10.44250000 17.40416667
405 1 3.48083333 10.44250000 19.72472222
406 1 3.48083333 10.44250000 22.04527778
407 1 3.48083333 10.44250000 24.36583333
408 1 3.48083333 10.44250000 26.68638889
409 1 3.48083333 10.44250000 29.00694444
410 1 3.48083333 10.44250000 31.32750000
411 1 3.48083333 10.44250000 33.64805556
412 1 3.48083333 10.44250000 35.96861111
413 1 3.48083333 10.44250000 38.28916667
414 1 3.48083333 10.44250000 40.60972222
415 1 3.48083333 12.76305556 1.16027778
416 1 3.48083333 12.76305556 3.48083333
417 1 3.48083333 12.76305556 5.80138889
418 1 3.48083333 12.76305556 8.12194444
419 1 3.48083333 12.76305556 10.44250000
420 1 3.48083333 12.76305556 12.76305556
421 1 3.48083333 12.76305556 15.08361111
422 1 3.48083333 12.76305556 17.40416667
423 1 3.48083333 12.76305556 19.72472222
424 1 3.48083333 12.76305556 22.04527778
425 1 3.48083333 12.76305556 24.36583333
426 1 3.48083333 12.76305556 26.68638889
427 1 3.48083333 12.76305556 29.00694444
428 1 3.48083333 12.76305556 31.32750000
429 1 3.48083333 12.76305556 33.64805556
430 1 3.48083333 12.76305556 35.96861111
431 1 3.48083333 12.76305556 38.28916667
432 1 3.48083333 12.76305556 40.60972222
433 1 3.48083333 15.08361111 1.16027778
434 1 3.48083333 15.08361111 3.48083333
435 1 3.48083333 15.08361111 5.80138889
436 1 3.48083333 15.08361111 8.12194444
437 1 3.48083333 15.08361111 10.44250000
438 1 3.48083333 15.08361111 12.76305556
439 1 3.48083333 15.08361111 15.08361111
440 1 3.48083333 15.08361111 17.40416667
441 1 3.48083333 15.08361111 19.72472222
442 1 3.48083333 15.08361111 22.04527778
443 1 3.48083333 15.08361111 24.36583333
444 1 3.48083333 15.08361111 26.68638889
445 1 3.48083333 15.08361111 29.00694444
446 1 3.48083333 15.08361111 31.32750000
447 1 3.48083333 15.08361111 33.64805556
448 1 3.48083333 15.08361111 35.96861111
449 1 3.48083333 15.08361111 38.28916667
450 1 3.48083333 15.08361111 40.60972222
451 1 3.48083333 17.40416667 1.16027778
452 1 3.48083333 17.40416667 3.48083333
453 1 3.48083333 17.40416667 5.80138889
454 1 3.48083333 17.40416667 8.12194444
455 1 3.48083333 17.40416667 10.44250000
456 1 3.48083333 17.40416667 12.76305556
457 1 3.48083333 17.40416667 15.08361111
458 1 3.48083333 17.40416667 17.40416667
459 1 3.48083333 17.40416667 19.72472222
460 1 3.48083333 17.40416667 22.04527778
461 1 3.48083333 17.40416667 24.36583333
462 1 3.48083333 17.40416667 26.68638889
463 1 3.48083333 17.40416667 29.00694444
464 1 3.48083333 17.40416667 31.32750000
465 1 3.48083333 17.40416667 33.64805556
466 1 3.48083333 17.40416667 35.96861111
467 1 3.48083333 17.40416667 38.28916667
468 1 3.48083333 17.40416667 40.60972222
469 1 3.48083333 19.72472222 1.16027778
470 1 3.48083333 19.72472222 3.48083333
471 1 3.48083333 19.72472222 5.80138889
472 1 3.48083333 19.72472222 8.12194444
473 1 3.48083333 19.72472222 10.44250000
474 1 3.48083333 19.72472222 12.76305556
475 1 3.48083333 19.72472222 15.08361111
476 1 3.48083333 19.72472222 17.40416667
477 1 3.48083333 19.72472222 19.72472222
478 1 3.48083333 19.72472222 22.04527778
479 1 3.48083333 19.72472222 24.36583333
480 1 3.48083333 19.72472222 26.68638889
481 1 3.48083333 19.72472222 29.00694444
482 1 3.48083333 19.72472222 31.32750000
483 1 3.48083333 19.72472222 33.64805556
484 1 3.48083333 19.72472222 35.96861111
485 1 3.48083333 19.72472222 38.28916667
486 1 3.48083333 19.72472222 40.60972222
487 1 3.48083333 22.04527778 1.16027778
488 1 3.48083333 22.04527778 3.48083333
489 1 3.48083333 22.04527778 5.80138889
490 1 3.48083333 22.04527778 8.12194444
491 1 3.48083333 22.04527778 10.44250000
492 1 3.48083333 22.04527778 12.76305556
493 1 3.48083333 22.04527778 15.08361111
494 1 3.48083333 22.04527778 17.40416667
495 1 3.48083333 22.04527778 19.72472222
496 1 3.48083333 22.04527778 22.04527778
497 1 3.48083333 22.04527778 24.36583333
498 1 3.48083333 22.04527778 26.68638889
499 1 3.48083333 22.04527778 29.00694444
500 1 3.48083333 22.04527778 31.32750000
501 1 3.48083333 22.04527778 33.64805556
502 1 3.48083333 22.04527778 35.96861111
503 1 3.48083333 22.04527778 38.28916667
504 1 3.48083333 22.04527778 40.60972222
505 1 3.48083333 24.36583333 1.16027778
506 1 3.48083333 24.36583333 3.48083333
507 1 3.48083333 24.36583333 5.80138889
508 1 3.48083333 24.36583333 8.12194444
509 1 3.48083333 24.36583333 10.44250000
510 1 3.48083333 24.36583333 12.76305556
511 1 3.48083333 24.36583333 15.08361111
512 1 3.48083333 24.36583333 17.40416667
513 1 3.48083333 24.36583333 19.72472222
514 1 3.48083333 24.36583333 22.04527778
515 1 3.48083333 24.36583333 24.36583333
516 1 3.48083333 24.36583333 26.68638889
517 1 3.48083333 24.36583333 29.00694444
518 1 3.48083333 24.36583333 31.32750000
519 1 3.48083333 24.36583333 33.64805556
520 1 3.48083333 24.36583333 35.96861111
521 1 3.48083333 24.36583333 38.28916667
522 1 3.48083333 24.36583333 40.60972222
523 1 3.48083333 26.68638889 1.16027778
524 1 3.48083333 26.68638889 3.48083333
525 1 3.48083333 26.68638889 5.80138889
526 1 3.48083333 26.68638889 8.12194444
527 1 3.48083333 26.68638889 10.44250000
528 1 3.48083333 26.68638889 12.76305556
529 1 3.48083333 26.68638889 15.08361111
530 1 3.48083333 26.68638889 17.40416667
531 1 3.48083333 26.68638889 19.72472222
532 1 3.48083333 26.68638889 22.04527778
533 1 3.48083333 26.68638889 24.36583333
534 1 3.48083333 26.68638889 26.68638889
535 1 3.48083333 26.68638889 29.00694444
536 1 3.48083333 26.68638889 31.32750000
537 1 3.48083333 26.68638889 33.64805556
538 1 3.48083333 26.68638889 35.96861111
539 1 3.48083333 26.68638889 38.28916667
540 1 3.48083333 26.68638889 40.60972222
541 1 3.48083333 29.00694444 1.16027778
542 1 3.48083333 29.00694444 3.48083333
543 1 3.48083333 29.00694444 5.80138889
544 1 3.48083333 29.00694444 8.12194444
545 1 3.48083333 29.00694444 10.44250000
546 1 3.48083333 29.00694444 12.76305556
547 1 3.48083333 29.00694444 15.08361111
548 1 3.48083333 29.00694444 17.40416667
549 1 3.48083333 29.00694444 19.72472222
550 1 3.48083333 29.00694444 22.04527778
551 1 3.48083333 29.00694444 24.36583333
552 1 3.48083333 29.00694444 26.68638889
553 1 3.48083333 29.00694444 29.00694444
554 1 3.48083333 29.00694444 31.32750000
555 1 3.48083333 29.00694444 33.64805556
556 1 3.48083333 29.00694444 35.96861111
557 1 3.48083333 29.00694444 38.28916667
558 1 3.48083333 29.00694444 40.60972222
559 1 3.48083333 31.32750000 1.16027778
560 1 3.48083333 31.32750000 3.48083333
561 1 3.48083333 31.32750000 5.80138889
562 1 3.48083333 31.32750000 8.12194444
563 1 3.48083333 31.32750000 10.44250000
564 1 3.48083333 31.32750000 12.76305556
565 1 3.48083333 31.32750000 15.08361111
566 1 3.48083333 31.32750000 17.40416667
567 1 3.48083333 31.32750000 19.72472222
568 1 3.48083333 31.32750000 22.04527778
569 1 3.48083333 31.32750000 24.36583333
570 1 3.48083333 31.32750000 26.68638889
571 1 3.48083333 31.32750000 29.00694444
572 1 3.48083333 31.32750000 31.32750000
573 1 3.48083333 31.32750000 33.64805556
574 1 3.48083333 31.32750000 35.96861111
575 1 3.48083333 31.32750000 38.28916667
576 1 3.48083333 31.32750000 40.60972222
577 1 3.48083333 33.64805556 1.16027778
578 1 3.48083333 33.64805556 3.48083333
579 1 3.48083333 33.64805556 5.80138889
580 1 3.48083333 33.64805556 8.12194444
581 1 3.48083333 33.64805556 10.44250000
582 1 3.48083333 33.64805556 12.76305556
583 1 3.48083333 33.64805556 15.08361111
584 1 3.48083333 33.64805556 17.40416667
585 1 3.48083333 33.64805556 19.72472222
586 1 3.48083333 33.64805556 22.04527778
587 1 3.48083333 33.64805556 24.36583333
588 1 3.48083333 33.64805556 26.68638889
589 1 3.48083333 33.64805556 29.00694444
590 1 3.48083333 33.64805556 31.32750000
591 1 3.48083333 33.64805556 33.64805556
592 1 3.48083333 33.64805556 35.96861111
593 1 3.48083333 33.64805556 38.28916667
594 1 3.48083333 33.64805556 40.60972222
595 1 3.48083333 35.96861111 1.16027778
596 1 3.48083333 35.96861111 3.48083333
597 1 3.48083333 35.96861111 5.80138889
598 1 3.48083333 35.96861111 8.12194444
599 1 3.48083333 35.96861111 10.44250000
600 1 3.48083333 35.96861111 12.76305556
601 1 3.48083333 35.96861111 15.08361111
602 1 3.48083333 35.96861111 17.40416667
603 1 3.48083333 35.96861111 19.72472222
604 1 3.48083333 35.96861111 22.04527778
605 1 3.48083333 35.96861111 24.36583333
606 1 3.48083333 35.96861111 26.68638889
607 1 3.48083333 35.96861111 29.00694444
608 1 3.48083333 35.96861111 31.32750000
609 1 3.48083333 35.96861111 33.64805556
610 1 3.48083333 35.96861111 35.96861111
611 1 3.48083333 35.96861111 38.28916667
612 1 3.48083333 35.96861111 40.60972222
613 1 3.48083333 38.28916667 1.16027778
614 1 3.48083333 38.28916667 3.48083333
615 1 3.48083333 38.28916667 5.80138889
616 1 3.48083333 38.28916667 8.12194444
617 1 3.48083333 38.28916667 10.44250000
618 1 3.48083333 38.28916667 12.76305556
619 1 3.48083333 38.28916667 15.08361111
620 1 3.48083333 38.28916667 17.40416667
621 1 3.48083333 38.28916667 19.72472222
622 1 3.48083333 38.28916667 22.04527778
623 1 3.48083333 38.28916667 24.36583333
624 1 3.48083333 38.28916667 26.68638889
625 1 3.48083333 38.28916667 29.00694444
626 1 3.48083333 38.28916667 31.32750000
627 1 3.48083333 38.28916667 33.64805556
628 1 3.48083333 38.28916667 35.96861111
629 1 3.48083333 38.28916667 38.28916667
630 1 3.48083333 38.28916667 40.60972222
631 1 3.48083333 40.60972222 1.16027778
632 1 3.48083333 40.60972222 3.48083333
633 1 3.48083333 40.60972222 5.80138889
634 1 3.48083333 40.60972222 8.12194444
635 1 3.48083333 40.60972222 10.44250000
636 1 3.48083333 40.60972222 12.76305556
637 1 3.48083333 40.60972222 15.08361111
638 1 3.48083333 40.60972222 17.40416667
639 1 3.48083333 40.60972222 19.72472222
640 1 3.48083333 40.60972222 22.04527778
641 1 3.48083333 40.60972222 24.36583333
642 1 3.48083333 40.60972222 26.68638889
643 1 3.48083333 40.60972222 29.00694444
644 1 3.48083333 40.60972222 31.32750000
645 1 3.48083333 40.60972222 33.64805556
646 1 3.48083333 40.60972222 35.96861111
647 1 3.48083333 40.60972222 38.28916667
648 1 3.48083333 40.60972222 40.60972222
649 1 5.80138889 1.16027778 1.16027778
650 1 5.80138889 1.16027778 3.48083333
651 1 5.80138889 1.16027778 5.80138889
652 1 5.80138889 1.16027778 8.12194444
653 1 5.80138889 1.16027778 10.44250000
654 1 5.80138889 1.16027778 12.76305556
655 1 5.80138889 1.16027778 15.08361111
656 1 5.80138889 1.16027778 17.40416667
657 1 5.80138889 1.16027778 19.72472222
658 1 5.80138889 1.16027778 22.04527778
659 1 5.80138889 1.16027778 24.36583333
660 1 5.80138889 1.16027778 26.68638889
661 1 5.80138889 1.16027778 29.00694444
662 1 5.80138889 1.16027778 31.32750000
663 1 5.80138889 1.16027778 33.64805556
664 1 5.80138889 1.16027778 35.96861111
665 1 5.80138889 1.16027778 38.28916667
666 1 5.80138889 1.16027778 40.60972222
667 1 5.80138889 3.48083333 1.16027778
668 1 5.80138889 3.48083333 3.48083333
669 1 5.80138889 3.48083333 5.80138889
670 1 5.80138889 3.48083333 8.12194444
671 1 5.80138889 3.48083333 10.44250000
672 1 5.80138889 3.48083333 12.76305556
673 1 5.80138889 3.48083333 15.08361111
674 1 5.80138889 3.48083333 17.40416667
675 1 5.80138889 3.48083333 19.72472222
676 1 5.80138889 3.48083333 22.04527778
677 1 5.80138889 3.48083333 24.36583333
678 1 5.80138889 3.48083333 26.68638889
679 1 5.80138889 3.48083333 29.00694444
680 1 5.80138889 3.48083333 31.32750000
681 1 5.80138889 3.48083333 33.64805556
682 1 5.80138889 3.48083333 35.96861111
683 1 5.80138889 3.48083333 38.28916667
684 1 5.80138889 3.48083333 40.60972222
685 1 5.80138889 5.80138889 1.16027778
686 1 5.80138889 5.80138889 3.48083333
687 1 5.80138889 5.80138889 5.80138889
688 1 5.80138889 5.80138889 8.12194444
689 1 5.80138889 5.80138889 10.44250000
690 1 5.80138889 5.80138889 12.76305556
691 1 5.80138889 5.80138889 15.08361111
692 1 5.80138889 5.80138889 17.40416667
693 1 5.80138889 5.80138889 19.72472222
694 1 5.80138889 5.80138889 22.04527778
695 1 5.80138889 5.80138889 24.36583333
696 1 5.80138889 5.80138889 26.68638889
697 1 5.80138889 5.80138889 29.00694444
698 1 5.80138889 5.80138889 31.32750000
699 1 5.80138889 5.80138889 33.64805556
700 1 5.80138889 5.80138889 35.96861111
701 1 5.80138889 5.80138889 38.28916667
702 1 5.80138889 5.80138889 40.60972222
703 1 5.80138889 8.12194444 1.16027778
704 1 5.80138889 8.12194444 3.48083333
705 1 5.80138889 8.12194444 5.80138889
706 1 5.80138889 8.12194444 8.12194444
707 1 5.80138889 8.12194444 10.44250000
708 1 5.80138889 8.12194444 12.76305556
709 1 5.80138889 8.12194444 15.08361111
710 1 5.80138889 8.12194444 17.40416667
711 1 5.80138889 8.12194444 19.72472222
712 1 5.80138889 8.12194444 22.04527778
713 1 5.80138889 8.12194444 24.36583333
714 1 5.80138889 8.12194444 26.68638889
715 1 5.80138889 8.12194444 29.00694444
716 1 5.80138889 8.12194444 31.32750000
717 1 5.80138889 8.12194444 33.64805556
718 1 5.80138889 8.12194444 35.96861111
719 1 5.80138889 8.12194444 38.28916667
720 1 5.80138889 8.12194444 40.60972222
721 1 5.80138889 10.44250000 1.16027778
722 1 5.80138889 10.44250000 3.48083333
723 1 5.80138889 10.44250000 5.80138889
724 1 5.80138889 10.44250000 8.12194444
725 1 5.80138889 10.44250000 10.44250000
726 1 5.80138889 10.44250000 12.76305556
727 1 5.80138889 10.44250000 15.08361111
728 1 5.80138889 10.44250000 17.40416667
729 1 5.80138889 10.44250000 19.72472222
730 1 5.80138889 10.44250000 22.04527778
731 1 5.80138889 10.44250000 24.36583333
732 1 5.80138889 10.44250000 26.68638889
733 1 5.80138889 10.44250000 29.00694444
734 1 5.80138889 10.44250000 31.32750000
735 1 5.80138889 10.44250000 33.64805556
736 1 5.80138889 10.44250000 35.96861111
737 1 5.80138889 10.44250000 38.28916667
738 1 5.80138889 10.44250000 40.60972222
739 1 5.80138889 12.76305556 1.16027778
740 1 5.80138889 12.76305556 3.48083333