LAMMPS Simulation Data
729 atoms
3 atom types

0 12.57 xlo xhi 
0 12.57 ylo yhi 
0 12.57 zlo zhi 

Masses

1 1.0
2 1.0
3 1.0

Atoms

1 1 0.69833333 0.69833333 0.69833333
2 1 0.69833333 0.69833333 2.09500000
3 1 0.69833333 0.69833333 3.49166667
4 1 0.69833333 0.69833333 4.88833333
5 1 0.69833333 0.69833333 6.28500000
6 1 0.69833333 0.69833333 7.68166667
7 1 0.69833333 0.69833333 9.07833333
8 1 0.69833333 0.69833333 10.47500000
9 1 0.69833333 0.69833333 11.87166667
10 1 0.69833333 2.09500000 0.69833333
11 1 0.69833333 2.09500000 2.09500000
12 1 0.69833333 2.09500000 3.49166667
13 1 0.69833333 2.09500000 4.88833333
14 1 0.69833333 2.09500000 6.28500000
15 1 0.69833333 2.09500000 7.68166667
16 1 0.69833333 2.09500000 9.07833333
17 1 0.69833333 2.09500000 10.47500000
18 1 0.69833333 2.09500000 11.87166667
19 1 0.69833333 3.49166667 0.69833333
20 1 0.69833333 3.49166667 2.09500000
21 1 0.69833333 3.49166667 3.49166667
22 1 0.69833333 3.49166667 4.88833333
23 1 0.69833333 3.49166667 6.28500000
24 1 0.69833333 3.49166667 7.68166667
25 1 0.69833333 3.49166667 9.07833333
26 1 0.69833333 3.49166667 10.47500000
27 1 0.69833333 3.49166667 11.87166667
28 1 0.69833333 4.88833333 0.69833333
29 1 0.69833333 4.88833333 2.09500000
30 1 0.69833333 4.88833333 3.49166667
31 1 0.69833333 4.88833333 4.88833333
32 1 0.69833333 4.88833333 6.28500000
33 1 0.69833333 4.88833333 7.68166667
34 1 0.69833333 4.88833333 9.07833333
35 1 0.69833333 4.88833333 10.47500000
36 1 0.69833333 4.88833333 11.87166667
37 1 0.69833333 6.28500000 0.69833333
38 1 0.69833333 6.28500000 2.09500000
39 1 0.69833333 6.28500000 3.49166667
40 1 0.69833333 6.28500000 4.88833333
41 1 0.69833333 6.28500000 6.28500000
42 1 0.69833333 6.28500000 7.68166667
43 1 0.69833333 6.28500000 9.07833333
44 1 0.69833333 6.28500000 10.47500000
45 1 0.69833333 6.28500000 11.87166667
46 1 0.69833333 7.68166667 0.69833333
47 1 0.69833333 7.68166667 2.09500000
48 1 0.69833333 7.68166667 3.49166667
49 1 0.69833333 7.68166667 4.88833333
50 1 0.69833333 7.68166667 6.28500000
51 1 0.69833333 7.68166667 7.68166667
52 1 0.69833333 7.68166667 9.07833333
53 1 0.69833333 7.68166667 10.47500000
54 1 0.69833333 7.68166667 11.87166667
55 1 0.69833333 9.07833333 0.69833333
56 1 0.69833333 9.07833333 2.09500000
57 1 0.69833333 9.07833333 3.49166667
58 1 0.69833333 9.07833333 4.88833333
59 1 0.69833333 9.07833333 6.28500000
60 1 0.69833333 9.07833333 7.68166667
61 1 0.69833333 9.07833333 9.07833333
62 1 0.69833333 9.07833333 10.47500000
63 1 0.69833333 9.07833333 11.87166667
64 1 0.69833333 10.47500000 0.69833333
65 1 0.69833333 10.47500000 2.09500000
66 1 0.69833333 10.47500000 3.49166667
67 1 0.69833333 10.47500000 4.88833333
68 1 0.69833333 10.47500000 6.28500000
69 1 0.69833333 10.47500000 7.68166667
70 1 0.69833333 10.47500000 9.07833333
71 1 0.69833333 10.47500000 10.47500000
72 1 0.69833333 10.47500000 11.87166667
73 1 0.69833333 11.87166667 0.69833333
74 1 0.69833333 11.87166667 2.09500000
75 1 0.69833333 11.87166667 3.49166667
76 1 0.69833333 11.87166667 4.88833333
77 1 0.69833333 11.87166667 6.28500000
78 1 0.69833333 11.87166667 7.68166667
79 1 0.69833333 11.87166667 9.07833333
80 1 0.69833333 11.87166667 10.47500000
81 1 0.69833333 11.87166667 11.87166667
82 1 2.09500000 0.69833333 0.69833333
83 1 2.09500000 0.69833333 2.09500000
84 1 2.09500000 0.69833333 3.49166667
85 1 2.09500000 0.69833333 4.88833333
86 1 2.09500000 0.69833333 6.28500000
87 1 2.09500000 0.69833333 7.68166667
88 1 2.09500000 0.69833333 9.07833333
89 1 2.09500000 0.69833333 10.47500000
90 1 2.09500000 0.69833333 11.87166667
91 1 2.09500000 2.09500000 0.69833333
92 1 2.09500000 2.09500000 2.09500000
93 1 2.09500000 2.09500000 3.49166667
94 1 2.09500000 2.09500000 4.88833333
95 1 2.09500000 2.09500000 6.28500000
96 1 2.09500000 2.09500000 7.68166667
97 1 2.09500000 2.09500000 9.07833333
98 1 2.09500000 2.09500000 10.47500000
99 1 2.09500000 2.09500000 11.87166667
100 1 2.09500000 3.49166667 0.69833333
101 1 2.09500000 3.49166667 2.09500000
102 1 2.09500000 3.49166667 3.49166667
103 1 2.09500000 3.49166667 4.88833333
104 1 2.09500000 3.49166667 6.28500000
105 1 2.09500000 3.49166667 7.68166667
106 1 2.09500000 3.49166667 9.07833333
107 1 2.09500000 3.49166667 10.47500000
108 1 2.09500000 3.49166667 11.87166667
109 1 2.09500000 4.88833333 0.69833333
110 1 2.09500000 4.88833333 2.09500000
111 1 2.09500000 4.88833333 3.49166667
112 1 2.09500000 4.88833333 4.88833333
113 1 2.09500000 4.88833333 6.28500000
114 1 2.09500000 4.88833333 7.68166667
115 1 2.09500000 4.88833333 9.07833333
116 1 2.09500000 4.88833333 10.47500000
117 1 2.09500000 4.88833333 11.87166667
118 1 2.09500000 6.28500000 0.69833333
119 1 2.09500000 6.28500000 2.09500000
120 1 2.09500000 6.28500000 3.49166667
121 1 2.09500000 6.28500000 4.88833333
122 1 2.09500000 6.28500000 6.28500000
123 1 2.09500000 6.28500000 7.68166667
124 1 2.09500000 6.28500000 9.07833333
125 1 2.09500000 6.28500000 10.47500000
126 1 2.09500000 6.28500000 11.87166667
127 1 2.09500000 7.68166667 0.69833333
128 1 2.09500000 7.68166667 2.09500000
129 1 2.09500000 7.68166667 3.49166667
130 1 2.09500000 7.68166667 4.88833333
131 1 2.09500000 7.68166667 6.28500000
132 1 2.09500000 7.68166667 7.68166667
133 1 2.09500000 7.68166667 9.07833333
134 1 2.09500000 7.68166667 10.47500000
135 1 2.09500000 7.68166667 11.87166667
136 1 2.09500000 9.07833333 0.69833333
137 1 2.09500000 9.07833333 2.09500000
138 1 2.09500000 9.07833333 3.49166667
139 1 2.09500000 9.07833333 4.88833333
140 1 2.09500000 9.07833333 6.28500000
141 1 2.09500000 9.07833333 7.68166667
142 1 2.09500000 9.07833333 9.07833333
143 1 2.09500000 9.07833333 10.47500000
144 1 2.09500000 9.07833333 11.87166667
145 1 2.09500000 10.47500000 0.69833333
146 1 2.09500000 10.47500000 2.09500000
147 1 2.09500000 10.47500000 3.49166667
148 1 2.09500000 10.47500000 4.88833333
149 1 2.09500000 10.47500000 6.28500000
150 1 2.09500000 10.47500000 7.68166667
151 1 2.09500000 10.47500000 9.07833333
152 1 2.09500000 10.47500000 10.47500000
153 1 2.09500000 10.47500000 11.87166667
154 1 2.09500000 11.87166667 0.69833333
155 1 2.09500000 11.87166667 2.09500000
156 1 2.09500000 11.87166667 3.49166667
157 1 2.09500000 11.87166667 4.88833333
158 1 2.09500000 11.87166667 6.28500000
159 1 2.09500000 11.87166667 7.68166667
160 1 2.09500000 11.87166667 9.07833333
161 1 2.09500000 11.87166667 10.47500000
162 1 2.09500000 11.87166667 11.87166667
163 1 3.49166667 0.69833333 0.69833333
164 1 3.49166667 0.69833333 2.09500000
165 1 3.49166667 0.69833333 3.49166667
166 1 3.49166667 0.69833333 4.88833333
167 1 3.49166667 0.69833333 6.28500000
168 1 3.49166667 0.69833333 7.68166667
169 1 3.49166667 0.69833333 9.07833333
170 1 3.49166667 0.69833333 10.47500000
171 1 3.49166667 0.69833333 11.87166667
172 1 3.49166667 2.09500000 0.69833333
173 1 3.49166667 2.09500000 2.09500000
174 1 3.49166667 2.09500000 3.49166667
175 1 3.49166667 2.09500000 4.88833333
176 1 3.49166667 2.09500000 6.28500000
177 1 3.49166667 2.09500000 7.68166667
178 1 3.49166667 2.09500000 9.07833333
179 1 3.49166667 2.09500000 10.47500000
180 1 3.49166667 2.09500000 11.87166667
181 1 3.49166667 3.49166667 0.69833333
182 1 3.49166667 3.49166667 2.09500000
183 1 3.49166667 3.49166667 3.49166667
184 1 3.49166667 3.49166667 4.88833333
185 1 3.49166667 3.49166667 6.28500000
186 1 3.49166667 3.49166667 7.68166667
187 1 3.49166667 3.49166667 9.07833333
188 1 3.49166667 3.49166667 10.47500000
189 1 3.49166667 3.49166667 11.87166667
190 1 3.49166667 4.88833333 0.69833333
191 1 3.49166667 4.88833333 2.09500000
192 1 3.49166667 4.88833333 3.49166667
193 1 3.49166667 4.88833333 4.88833333
194 1 3.49166667 4.88833333 6.28500000
195 1 3.49166667 4.88833333 7.68166667
196 1 3.49166667 4.88833333 9.07833333
197 1 3.49166667 4.88833333 10.47500000
198 1 3.49166667 4.88833333 11.87166667
199 1 3.49166667 6.28500000 0.69833333
200 1 3.49166667 6.28500000 2.09500000
201 1 3.49166667 6.28500000 3.49166667
202 1 3.49166667 6.28500000 4.88833333
203 1 3.49166667 6.28500000 6.28500000
204 1 3.49166667 6.28500000 7.68166667
205 1 3.49166667 6.28500000 9.07833333
206 1 3.49166667 6.28500000 10.47500000
207 1 3.49166667 6.28500000 11.87166667
208 1 3.49166667 7.68166667 0.69833333
209 1 3.49166667 7.68166667 2.09500000
210 1 3.49166667 7.68166667 3.49166667
211 1 3.49166667 7.68166667 4.88833333
212 1 3.49166667 7.68166667 6.28500000
213 1 3.49166667 7.68166667 7.68166667
214 1 3.49166667 7.68166667 9.07833333
215 1 3.49166667 7.68166667 10.47500000
216 1 3.49166667 7.68166667 11.87166667
217 1 3.49166667 9.07833333 0.69833333
218 1 3.49166667 9.07833333 2.09500000
219 1 3.49166667 9.07833333 3.49166667
220 1 3.49166667 9.07833333 4.88833333
221 1 3.49166667 9.07833333 6.28500000
222 1 3.49166667 9.07833333 7.68166667
223 1 3.49166667 9.07833333 9.07833333
224 1 3.49166667 9.07833333 10.47500000
225 1 3.49166667 9.07833333 11.87166667
226 1 3.49166667 10.47500000 0.69833333
227 1 3.49166667 10.47500000 2.09500000
228 1 3.49166667 10.47500000 3.49166667
229 1 3.49166667 10.47500000 4.88833333
230 1 3.49166667 10.47500000 6.28500000
231 1 3.49166667 10.47500000 7.68166667
232 1 3.49166667 10.47500000 9.07833333
233 1 3.49166667 10.47500000 10.47500000
234 1 3.49166667 10.47500000 11.87166667
235 1 3.49166667 11.87166667 0.69833333
236 1 3.49166667 11.87166667 2.09500000
237 1 3.49166667 11.87166667 3.49166667
238 1 3.49166667 11.87166667 4.88833333
239 1 3.49166667 11.87166667 6.28500000
240 1 3.49166667 11.87166667 7.68166667
241 1 3.49166667 11.87166667 9.07833333
242 1 3.49166667 11.87166667 10.47500000
243 1 3.49166667 11.87166667 11.87166667
244 2 4.88833333 0.69833333 0.69833333
245 2 4.88833333 0.69833333 2.09500000
246 2 4.88833333 0.69833333 3.49166667
247 2 4.88833333 0.69833333 4.88833333
248 2 4.88833333 0.69833333 6.28500000
249 2 4.88833333 0.69833333 7.68166667
250 2 4.88833333 0.69833333 9.07833333
251 2 4.88833333 0.69833333 10.47500000
252 2 4.88833333 0.69833333 11.87166667
253 2 4.88833333 2.09500000 0.69833333
254 2 4.88833333 2.09500000 2.09500000
255 2 4.88833333 2.09500000 3.49166667
256 2 4.88833333 2.09500000 4.88833333
257 2 4.88833333 2.09500000 6.28500000
258 2 4.88833333 2.09500000 7.68166667
259 2 4.88833333 2.09500000 9.07833333
260 2 4.88833333 2.09500000 10.47500000
261 2 4.88833333 2.09500000 11.87166667
262 2 4.88833333 3.49166667 0.69833333
263 2 4.88833333 3.49166667 2.09500000
264 2 4.88833333 3.49166667 3.49166667
265 2 4.88833333 3.49166667 4.88833333
266 2 4.88833333 3.49166667 6.28500000
267 2 4.88833333 3.49166667 7.68166667
268 2 4.88833333 3.49166667 9.07833333
269 2 4.88833333 3.49166667 10.47500000
270 2 4.88833333 3.49166667 11.87166667
271 2 4.88833333 4.88833333 0.69833333
272 2 4.88833333 4.88833333 2.09500000
273 2 4.88833333 4.88833333 3.49166667
274 2 4.88833333 4.88833333 4.88833333
275 2 4.88833333 4.88833333 6.28500000
276 2 4.88833333 4.88833333 7.68166667
277 2 4.88833333 4.88833333 9.07833333
278 2 4.88833333 4.88833333 10.47500000
279 2 4.88833333 4.88833333 11.87166667
280 2 4.88833333 6.28500000 0.69833333
281 2 4.88833333 6.28500000 2.09500000
282 2 4.88833333 6.28500000 3.49166667
283 2 4.88833333 6.28500000 4.88833333
284 2 4.88833333 6.28500000 6.28500000
285 2 4.88833333 6.28500000 7.68166667
286 2 4.88833333 6.28500000 9.07833333
287 2 4.88833333 6.28500000 10.47500000
288 2 4.88833333 6.28500000 11.87166667
289 2 4.88833333 7.68166667 0.69833333
290 2 4.88833333 7.68166667 2.09500000
291 2 4.88833333 7.68166667 3.49166667
292 2 4.88833333 7.68166667 4.88833333
293 2 4.88833333 7.68166667 6.28500000
294 2 4.88833333 7.68166667 7.68166667
295 2 4.88833333 7.68166667 9.07833333
296 2 4.88833333 7.68166667 10.47500000
297 2 4.88833333 7.68166667 11.87166667
298 2 4.88833333 9.07833333 0.69833333
299 2 4.88833333 9.07833333 2.09500000
300 2 4.88833333 9.07833333 3.49166667
301 2 4.88833333 9.07833333 4.88833333
302 2 4.88833333 9.07833333 6.28500000
303 2 4.88833333 9.07833333 7.68166667
304 2 4.88833333 9.07833333 9.07833333
305 2 4.88833333 9.07833333 10.47500000
306 2 4.88833333 9.07833333 11.87166667
307 2 4.88833333 10.47500000 0.69833333
308 2 4.88833333 10.47500000 2.09500000
309 2 4.88833333 10.47500000 3.49166667
310 2 4.88833333 10.47500000 4.88833333
311 2 4.88833333 10.47500000 6.28500000
312 2 4.88833333 10.47500000 7.68166667
313 2 4.88833333 10.47500000 9.07833333
314 2 4.88833333 10.47500000 10.47500000
315 2 4.88833333 10.47500000 11.87166667
316 2 4.88833333 11.87166667 0.69833333
317 2 4.88833333 11.87166667 2.09500000
318 2 4.88833333 11.87166667 3.49166667
319 2 4.88833333 11.87166667 4.88833333
320 2 4.88833333 11.87166667 6.28500000
321 2 4.88833333 11.87166667 7.68166667
322 2 4.88833333 11.87166667 9.07833333
323 2 4.88833333 11.87166667 10.47500000
324 2 4.88833333 11.87166667 11.87166667
325 2 6.28500000 0.69833333 0.69833333
326 2 6.28500000 0.69833333 2.09500000
327 2 6.28500000 0.69833333 3.49166667
328 2 6.28500000 0.69833333 4.88833333
329 2 6.28500000 0.69833333 6.28500000
330 2 6.28500000 0.69833333 7.68166667
331 2 6.28500000 0.69833333 9.07833333
332 2 6.28500000 0.69833333 10.47500000
333 2 6.28500000 0.69833333 11.87166667
334 2 6.28500000 2.09500000 0.69833333
335 2 6.28500000 2.09500000 2.09500000
336 2 6.28500000 2.09500000 3.49166667
337 2 6.28500000 2.09500000 4.88833333
338 2 6.28500000 2.09500000 6.28500000
339 2 6.28500000 2.09500000 7.68166667
340 2 6.28500000 2.09500000 9.07833333
341 2 6.28500000 2.09500000 10.47500000
342 2 6.28500000 2.09500000 11.87166667
343 2 6.28500000 3.49166667 0.69833333
344 2 6.28500000 3.49166667 2.09500000
345 2 6.28500000 3.49166667 3.49166667
346 2 6.28500000 3.49166667 4.88833333
347 2 6.28500000 3.49166667 6.28500000
348 2 6.28500000 3.49166667 7.68166667
349 2 6.28500000 3.49166667 9.07833333
350 2 6.28500000 3.49166667 10.47500000
351 2 6.28500000 3.49166667 11.87166667
352 2 6.28500000 4.88833333 0.69833333
353 2 6.28500000 4.88833333 2.09500000
354 2 6.28500000 4.88833333 3.49166667
355 2 6.28500000 4.88833333 4.88833333
356 2 6.28500000 4.88833333 6.28500000
357 2 6.28500000 4.88833333 7.68166667
358 2 6.28500000 4.88833333 9.07833333
359 2 6.28500000 4.88833333 10.47500000
360 2 6.28500000 4.88833333 11.87166667
361 2 6.28500000 6.28500000 0.69833333
362 2 6.28500000 6.28500000 2.09500000
363 2 6.28500000 6.28500000 3.49166667
364 2 6.28500000 6.28500000 4.88833333
365 2 6.28500000 6.28500000 6.28500000
366 2 6.28500000 6.28500000 7.68166667
367 2 6.28500000 6.28500000 9.07833333
368 2 6.28500000 6.28500000 10.47500000
369 2 6.28500000 6.28500000 11.87166667
370 2 6.28500000 7.68166667 0.69833333
371 2 6.28500000 7.68166667 2.09500000
372 2 6.28500000 7.68166667 3.49166667
373 2 6.28500000 7.68166667 4.88833333
374 2 6.28500000 7.68166667 6.28500000
375 2 6.28500000 7.68166667 7.68166667
376 2 6.28500000 7.68166667 9.07833333
377 2 6.28500000 7.68166667 10.47500000
378 2 6.28500000 7.68166667 11.87166667
379 2 6.28500000 9.07833333 0.69833333
380 2 6.28500000 9.07833333 2.09500000
381 2 6.28500000 9.07833333 3.49166667
382 2 6.28500000 9.07833333 4.88833333
383 2 6.28500000 9.07833333 6.28500000
384 2 6.28500000 9.07833333 7.68166667
385 2 6.28500000 9.07833333 9.07833333
386 2 6.28500000 9.07833333 10.47500000
387 2 6.28500000 9.07833333 11.87166667
388 2 6.28500000 10.47500000 0.69833333
389 2 6.28500000 10.47500000 2.09500000
390 2 6.28500000 10.47500000 3.49166667
391 2 6.28500000 10.47500000 4.88833333
392 2 6.28500000 10.47500000 6.28500000
393 2 6.28500000 10.47500000 7.68166667
394 2 6.28500000 10.47500000 9.07833333
395 2 6.28500000 10.47500000 10.47500000
396 2 6.28500000 10.47500000 11.87166667
397 2 6.28500000 11.87166667 0.69833333
398 2 6.28500000 11.87166667 2.09500000
399 2 6.28500000 11.87166667 3.49166667
400 2 6.28500000 11.87166667 4.88833333
401 2 6.28500000 11.87166667 6.28500000
402 2 6.28500000 11.87166667 7.68166667
403 2 6.28500000 11.87166667 9.07833333
404 2 6.28500000 11.87166667 10.47500000
405 2 6.28500000 11.87166667 11.87166667
406 2 7.68166667 0.69833333 0.69833333
407 2 7.68166667 0.69833333 2.09500000
408 2 7.68166667 0.69833333 3.49166667
409 2 7.68166667 0.69833333 4.88833333
410 2 7.68166667 0.69833333 6.28500000
411 2 7.68166667 0.69833333 7.68166667
412 2 7.68166667 0.69833333 9.07833333
413 2 7.68166667 0.69833333 10.47500000
414 2 7.68166667 0.69833333 11.87166667
415 2 7.68166667 2.09500000 0.69833333
416 2 7.68166667 2.09500000 2.09500000
417 2 7.68166667 2.09500000 3.49166667
418 2 7.68166667 2.09500000 4.88833333
419 2 7.68166667 2.09500000 6.28500000
420 2 7.68166667 2.09500000 7.68166667
421 2 7.68166667 2.09500000 9.07833333
422 2 7.68166667 2.09500000 10.47500000
423 2 7.68166667 2.09500000 11.87166667
424 2 7.68166667 3.49166667 0.69833333
425 2 7.68166667 3.49166667 2.09500000
426 2 7.68166667 3.49166667 3.49166667
427 2 7.68166667 3.49166667 4.88833333
428 2 7.68166667 3.49166667 6.28500000
429 2 7.68166667 3.49166667 7.68166667
430 2 7.68166667 3.49166667 9.07833333
431 2 7.68166667 3.49166667 10.47500000
432 2 7.68166667 3.49166667 11.87166667
433 2 7.68166667 4.88833333 0.69833333
434 2 7.68166667 4.88833333 2.09500000
435 2 7.68166667 4.88833333 3.49166667
436 2 7.68166667 4.88833333 4.88833333
437 2 7.68166667 4.88833333 6.28500000
438 2 7.68166667 4.88833333 7.68166667
439 2 7.68166667 4.88833333 9.07833333
440 2 7.68166667 4.88833333 10.47500000
441 2 7.68166667 4.88833333 11.87166667
442 2 7.68166667 6.28500000 0.69833333
443 2 7.68166667 6.28500000 2.09500000
444 2 7.68166667 6.28500000 3.49166667
445 2 7.68166667 6.28500000 4.88833333
446 2 7.68166667 6.28500000 6.28500000
447 2 7.68166667 6.28500000 7.68166667
448 2 7.68166667 6.28500000 9.07833333
449 2 7.68166667 6.28500000 10.47500000
450 2 7.68166667 6.28500000 11.87166667
451 2 7.68166667 7.68166667 0.69833333
452 2 7.68166667 7.68166667 2.09500000
453 2 7.68166667 7.68166667 3.49166667
454 2 7.68166667 7.68166667 4.88833333
455 2 7.68166667 7.68166667 6.28500000
456 2 7.68166667 7.68166667 7.68166667
457 2 7.68166667 7.68166667 9.07833333
458 2 7.68166667 7.68166667 10.47500000
459 2 7.68166667 7.68166667 11.87166667
460 2 7.68166667 9.07833333 0.69833333
461 2 7.68166667 9.07833333 2.09500000
462 2 7.68166667 9.07833333 3.49166667
463 2 7.68166667 9.07833333 4.88833333
464 2 7.68166667 9.07833333 6.28500000
465 2 7.68166667 9.07833333 7.68166667
466 2 7.68166667 9.07833333 9.07833333
467 2 7.68166667 9.07833333 10.47500000
468 2 7.68166667 9.07833333 11.87166667
469 2 7.68166667 10.47500000 0.69833333
470 2 7.68166667 10.47500000 2.09500000
471 2 7.68166667 10.47500000 3.49166667
472 2 7.68166667 10.47500000 4.88833333
473 2 7.68166667 10.47500000 6.28500000
474 2 7.68166667 10.47500000 7.68166667
475 2 7.68166667 10.47500000 9.07833333
476 2 7.68166667 10.47500000 10.47500000
477 2 7.68166667 10.47500000 11.87166667
478 2 7.68166667 11.87166667 0.69833333
479 2 7.68166667 11.87166667 2.09500000
480 2 7.68166667 11.87166667 3.49166667
481 2 7.68166667 11.87166667 4.88833333
482 2 7.68166667 11.87166667 6.28500000
483 2 7.68166667 11.87166667 7.68166667
484 2 7.68166667 11.87166667 9.07833333
485 2 7.68166667 11.87166667 10.47500000
486 2 7.68166667 11.87166667 11.87166667
487 3 9.07833333 0.69833333 0.69833333
488 3 9.07833333 0.69833333 2.09500000
489 3 9.07833333 0.69833333 3.49166667
490 3 9.07833333 0.69833333 4.88833333
491 3 9.07833333 0.69833333 6.28500000
492 3 9.07833333 0.69833333 7.68166667
493 3 9.07833333 0.69833333 9.07833333
494 3 9.07833333 0.69833333 10.47500000
495 3 9.07833333 0.69833333 11.87166667
496 3 9.07833333 2.09500000 0.69833333
497 3 9.07833333 2.09500000 2.09500000
498 3 9.07833333 2.09500000 3.49166667
499 3 9.07833333 2.09500000 4.88833333
500 3 9.07833333 2.09500000 6.28500000
501 3 9.07833333 2.09500000 7.68166667
502 3 9.07833333 2.09500000 9.07833333
503 3 9.07833333 2.09500000 10.47500000
504 3 9.07833333 2.09500000 11.87166667
505 3 9.07833333 3.49166667 0.69833333
506 3 9.07833333 3.49166667 2.09500000
507 3 9.07833333 3.49166667 3.49166667
508 3 9.07833333 3.49166667 4.88833333
509 3 9.07833333 3.49166667 6.28500000
510 3 9.07833333 3.49166667 7.68166667
511 3 9.07833333 3.49166667 9.07833333
512 3 9.07833333 3.49166667 10.47500000
513 3 9.07833333 3.49166667 11.87166667
514 3 9.07833333 4.88833333 0.69833333
515 3 9.07833333 4.88833333 2.09500000
516 3 9.07833333 4.88833333 3.49166667
517 3 9.07833333 4.88833333 4.88833333
518 3 9.07833333 4.88833333 6.28500000
519 3 9.07833333 4.88833333 7.68166667
520 3 9.07833333 4.88833333 9.07833333
521 3 9.07833333 4.88833333 10.47500000
522 3 9.07833333 4.88833333 11.87166667
523 3 9.07833333 6.28500000 0.69833333
524 3 9.07833333 6.28500000 2.09500000
525 3 9.07833333 6.28500000 3.49166667
526 3 9.07833333 6.28500000 4.88833333
527 3 9.07833333 6.28500000 6.28500000
528 3 9.07833333 6.28500000 7.68166667
529 3 9.07833333 6.28500000 9.07833333
530 3 9.07833333 6.28500000 10.47500000
531 3 9.07833333 6.28500000 11.87166667
532 3 9.07833333 7.68166667 0.69833333
533 3 9.07833333 7.68166667 2.09500000
534 3 9.07833333 7.68166667 3.49166667
535 3 9.07833333 7.68166667 4.88833333
536 3 9.07833333 7.68166667 6.28500000
537 3 9.07833333 7.68166667 7.68166667
538 3 9.07833333 7.68166667 9.07833333
539 3 9.07833333 7.68166667 10.47500000
540 3 9.07833333 7.68166667 11.87166667
541 3 9.07833333 9.07833333 0.69833333
542 3 9.07833333 9.07833333 2.09500000
543 3 9.07833333 9.07833333 3.49166667
544 3 9.07833333 9.07833333 4.88833333
545 3 9.07833333 9.07833333 6.28500000
546 3 9.07833333 9.07833333 7.68166667
547 3 9.07833333 9.07833333 9.07833333
548 3 9.07833333 9.07833333 10.47500000
549 3 9.07833333 9.07833333 11.87166667
550 3 9.07833333 10.47500000 0.69833333
551 3 9.07833333 10.47500000 2.09500000
552 3 9.07833333 10.47500000 3.49166667
553 3 9.07833333 10.47500000 4.88833333
554 3 9.07833333 10.47500000 6.28500000
555 3 9.07833333 10.47500000 7.68166667
556 3 9.07833333 10.47500000 9.07833333
557 3 9.07833333 10.47500000 10.47500000
558 3 9.07833333 10.47500000 11.87166667
559 3 9.07833333 11.87166667 0.69833333
560 3 9.07833333 11.87166667 2.09500000
561 3 9.07833333 11.87166667 3.49166667
562 3 9.07833333 11.87166667 4.88833333
563 3 9.07833333 11.87166667 6.28500000
564 3 9.07833333 11.87166667 7.68166667
565 3 9.07833333 11.87166667 9.07833333
566 3 9.07833333 11.87166667 10.47500000
567 3 9.07833333 11.87166667 11.87166667
568 3 10.47500000 0.69833333 0.69833333
569 3 10.47500000 0.69833333 2.09500000
570 3 10.47500000 0.69833333 3.49166667
571 3 10.47500000 0.69833333 4.88833333
572 3 10.47500000 0.69833333 6.28500000
573 3 10.47500000 0.69833333 7.68166667
574 3 10.47500000 0.69833333 9.07833333
575 3 10.47500000 0.69833333 10.47500000
576 3 10.47500000 0.69833333 11.87166667
577 3 10.47500000 2.09500000 0.69833333
578 3 10.47500000 2.09500000 2.09500000
579 3 10.47500000 2.09500000 3.49166667
580 3 10.47500000 2.09500000 4.88833333
581 3 10.47500000 2.09500000 6.28500000
582 3 10.47500000 2.09500000 7.68166667
583 3 10.47500000 2.09500000 9.07833333
584 3 10.47500000 2.09500000 10.47500000
585 3 10.47500000 2.09500000 11.87166667
586 3 10.47500000 3.49166667 0.69833333
587 3 10.47500000 3.49166667 2.09500000
588 3 10.47500000 3.49166667 3.49166667
589 3 10.47500000 3.49166667 4.88833333
590 3 10.47500000 3.49166667 6.28500000
591 3 10.47500000 3.49166667 7.68166667
592 3 10.47500000 3.49166667 9.07833333
593 3 10.47500000 3.49166667 10.47500000
594 3 10.47500000 3.49166667 11.87166667
595 3 10.47500000 4.88833333 0.69833333
596 3 10.47500000 4.88833333 2.09500000
597 3 10.47500000 4.88833333 3.49166667
598 3 10.47500000 4.88833333 4.88833333
599 3 10.47500000 4.88833333 6.28500000
600 3 10.47500000 4.88833333 7.68166667
601 3 10.47500000 4.88833333 9.07833333
602 3 10.47500000 4.88833333 10.47500000
603 3 10.47500000 4.88833333 11.87166667
604 3 10.47500000 6.28500000 0.69833333
605 3 10.47500000 6.28500000 2.09500000
606 3 10.47500000 6.28500000 3.49166667
607 3 10.47500000 6.28500000 4.88833333
608 3 10.47500000 6.28500000 6.28500000
609 3 10.47500000 6.28500000 7.68166667
610 3 10.47500000 6.28500000 9.07833333
611 3 10.47500000 6.28500000 10.47500000
612 3 10.47500000 6.28500000 11.87166667
613 3 10.47500000 7.68166667 0.69833333
614 3 10.47500000 7.68166667 2.09500000
615 3 10.47500000 7.68166667 3.49166667
616 3 10.47500000 7.68166667 4.88833333
617 3 10.47500000 7.68166667 6.28500000
618 3 10.47500000 7.68166667 7.68166667
619 3 10.47500000 7.68166667 9.07833333
620 3 10.47500000 7.68166667 10.47500000
621 3 10.47500000 7.68166667 11.87166667
622 3 10.47500000 9.07833333 0.69833333
623 3 10.47500000 9.07833333 2.09500000
624 3 10.47500000 9.07833333 3.49166667
625 3 10.47500000 9.07833333 4.88833333
626 3 10.47500000 9.07833333 6.28500000
627 3 10.47500000 9.07833333 7.68166667
628 3 10.47500000 9.07833333 9.07833333
629 3 10.47500000 9.07833333 10.47500000
630 3 10.47500000 9.07833333 11.87166667
631 3 10.47500000 10.47500000 0.69833333
632 3 10.47500000 10.47500000 2.09500000
633 3 10.47500000 10.47500000 3.49166667
634 3 10.47500000 10.47500000 4.88833333
635 3 10.47500000 10.47500000 6.28500000
636 3 10.47500000 10.47500000 7.68166667
637 3 10.47500000 10.47500000 9.07833333
638 3 10.47500000 10.47500000 10.47500000
639 3 10.47500000 10.47500000 11.87166667
640 3 10.47500000 11.87166667 0.69833333
641 3 10.47500000 11.87166667 2.09500000
642 3 10.47500000 11.87166667 3.49166667
643 3 10.47500000 11.87166667 4.88833333
644 3 10.47500000 11.87166667 6.28500000
645 3 10.47500000 11.87166667 7.68166667
646 3 10.47500000 11.87166667 9.07833333
647 3 10.47500000 11.87166667 10.47500000
648 3 10.47500000 11.87166667 11.87166667
649 3 11.87166667 0.69833333 0.69833333
650 3 11.87166667 0.69833333 2.09500000
651 3 11.87166667 0.69833333 3.49166667
652 3 11.87166667 0.69833333 4.88833333
653 3 11.87166667 0.69833333 6.28500000
654 3 11.87166667 0.69833333 7.68166667
655 3 11.87166667 0.69833333 9.07833333
656 3 11.87166667 0.69833333 10.47500000
657 3 11.87166667 0.69833333 11.87166667
658 3 11.87166667 2.09500000 0.69833333
659 3 11.87166667 2.09500000 2.09500000
660 3 11.87166667 2.09500000 3.49166667
661 3 11.87166667 2.09500000 4.88833333
662 3 11.87166667 2.09500000 6.28500000
663 3 11.87166667 2.09500000 7.68166667
664 3 11.87166667 2.09500000 9.07833333
665 3 11.87166667 2.09500000 10.47500000
666 3 11.87166667 2.09500000 11.87166667
667 3 11.87166667 3.49166667 0.69833333
668 3 11.87166667 3.49166667 2.09500000
669 3 11.87166667 3.49166667 3.49166667
670 3 11.87166667 3.49166667 4.88833333
671 3 11.87166667 3.49166667 6.28500000
672 3 11.87166667 3.49166667 7.68166667
673 3 11.87166667 3.49166667 9.07833333
674 3 11.87166667 3.49166667 10.47500000
675 3 11.87166667 3.49166667 11.87166667
676 3 11.87166667 4.88833333 0.69833333
677 3 11.87166667 4.88833333 2.09500000
678 3 11.87166667 4.88833333 3.49166667
679 3 11.87166667 4.88833333 4.88833333
680 3 11.87166667 4.88833333 6.28500000
681 3 11.87166667 4.88833333 7.68166667
682 3 11.87166667 4.88833333 9.07833333
683 3 11.87166667 4.88833333 10.47500000
684 3 11.87166667 4.88833333 11.87166667
685 3 11.87166667 6.28500000 0.69833333
686 3 11.87166667 6.28500000 2.09500000
687 3 11.87166667 6.28500000 3.49166667
688 3 11.87166667 6.28500000 4.88833333
689 3 11.87166667 6.28500000 6.28500000
690 3 11.87166667 6.28500000 7.68166667
691 3 11.87166667 6.28500000 9.07833333
692 3 11.87166667 6.28500000 10.47500000
693 3 11.87166667 6.28500000 11.87166667
694 3 11.87166667 7.68166667 0.69833333
695 3 11.87166667 7.68166667 2.09500000
696 3 11.87166667 7.68166667 3.49166667
697 3 11.87166667 7.68166667 4.88833333
698 3 11.87166667 7.68166667 6.28500000
699 3 11.87166667 7.68166667 7.68166667
700 3 11.87166667 7.68166667 9.07833333
701 3 11.87166667 7.68166667 10.47500000
702 3 11.87166667 7.68166667 11.87166667
703 3 11.87166667 9.07833333 0.69833333
704 3 11.87166667 9.07833333 2.09500000
705 3 11.87166667 9.07833333 3.49166667
706 3 11.87166667 9.07833333 4.88833333
707 3 11.87166667 9.07833333 6.28500000
708 3 11.87166667 9.07833333 7.68166667
709 3 11.87166667 9.07833333 9.07833333
710 3 11.87166667 9.07833333 10.47500000
711 3 11.87166667 9.07833333 11.87166667
712 3 11.87166667 10.47500000 0.69833333
713 3 11.87166667 10.47500000 2.09500000
714 3 11.87166667 10.47500000 3.49166667
715 3 11.87166667 10.47500000 4.88833333
716 3 11.87166667 10.47500000 6.28500000
717 3 11.87166667 10.47500000 7.68166667
718 3 11.87166667 10.47500000 9.07833333
719 3 11.87166667 10.47500000 10.47500000
720 3 11.87166667 10.47500000 11.87166667
721 3 11.87166667 11.87166667 0.69833333
722 3 11.87166667 11.87166667 2.09500000
723 3 11.87166667 11.87166667 3.49166667
724 3 11.87166667 11.87166667 4.88833333
725 3 11.87166667 11.87166667 6.28500000
726 3 11.87166667 11.87166667 7.68166667
727 3 11.87166667 11.87166667 9.07833333
728 3 11.87166667 11.87166667 10.47500000
729 3 11.87166667 11.87166667 11.87166667
