LAMMPS Simulation Data
500 atoms
1 atom types

0 29.240177382128657 xlo xhi 
0 29.240177382128657 ylo yhi 
0 29.240177382128657 zlo zhi 

Masses

1 1.0

Atoms

1 1 1.82751109 1.82751109 1.82751109
2 1 1.82751109 1.82751109 5.48253326
3 1 1.82751109 1.82751109 9.13755543
4 1 1.82751109 1.82751109 12.79257760
5 1 1.82751109 1.82751109 16.44759978
6 1 1.82751109 1.82751109 20.10262195
7 1 1.82751109 1.82751109 23.75764412
8 1 1.82751109 1.82751109 27.41266630
9 1 1.82751109 5.48253326 1.82751109
10 1 1.82751109 5.48253326 5.48253326
11 1 1.82751109 5.48253326 9.13755543
12 1 1.82751109 5.48253326 12.79257760
13 1 1.82751109 5.48253326 16.44759978
14 1 1.82751109 5.48253326 20.10262195
15 1 1.82751109 5.48253326 23.75764412
16 1 1.82751109 5.48253326 27.41266630
17 1 1.82751109 9.13755543 1.82751109
18 1 1.82751109 9.13755543 5.48253326
19 1 1.82751109 9.13755543 9.13755543
20 1 1.82751109 9.13755543 12.79257760
21 1 1.82751109 9.13755543 16.44759978
22 1 1.82751109 9.13755543 20.10262195
23 1 1.82751109 9.13755543 23.75764412
24 1 1.82751109 9.13755543 27.41266630
25 1 1.82751109 12.79257760 1.82751109
26 1 1.82751109 12.79257760 5.48253326
27 1 1.82751109 12.79257760 9.13755543
28 1 1.82751109 12.79257760 12.79257760
29 1 1.82751109 12.79257760 16.44759978
30 1 1.82751109 12.79257760 20.10262195
31 1 1.82751109 12.79257760 23.75764412
32 1 1.82751109 12.79257760 27.41266630
33 1 1.82751109 16.44759978 1.82751109
34 1 1.82751109 16.44759978 5.48253326
35 1 1.82751109 16.44759978 9.13755543
36 1 1.82751109 16.44759978 12.79257760
37 1 1.82751109 16.44759978 16.44759978
38 1 1.82751109 16.44759978 20.10262195
39 1 1.82751109 16.44759978 23.75764412
40 1 1.82751109 16.44759978 27.41266630
41 1 1.82751109 20.10262195 1.82751109
42 1 1.82751109 20.10262195 5.48253326
43 1 1.82751109 20.10262195 9.13755543
44 1 1.82751109 20.10262195 12.79257760
45 1 1.82751109 20.10262195 16.44759978
46 1 1.82751109 20.10262195 20.10262195
47 1 1.82751109 20.10262195 23.75764412
48 1 1.82751109 20.10262195 27.41266630
49 1 1.82751109 23.75764412 1.82751109
50 1 1.82751109 23.75764412 5.48253326
51 1 1.82751109 23.75764412 9.13755543
52 1 1.82751109 23.75764412 12.79257760
53 1 1.82751109 23.75764412 16.44759978
54 1 1.82751109 23.75764412 20.10262195
55 1 1.82751109 23.75764412 23.75764412
56 1 1.82751109 23.75764412 27.41266630
57 1 1.82751109 27.41266630 1.82751109
58 1 1.82751109 27.41266630 5.48253326
59 1 1.82751109 27.41266630 9.13755543
60 1 1.82751109 27.41266630 12.79257760
61 1 1.82751109 27.41266630 16.44759978
62 1 1.82751109 27.41266630 20.10262195
63 1 1.82751109 27.41266630 23.75764412
64 1 1.82751109 27.41266630 27.41266630
65 1 5.48253326 1.82751109 1.82751109
66 1 5.48253326 1.82751109 5.48253326
67 1 5.48253326 1.82751109 9.13755543
68 1 5.48253326 1.82751109 12.79257760
69 1 5.48253326 1.82751109 16.44759978
70 1 5.48253326 1.82751109 20.10262195
71 1 5.48253326 1.82751109 23.75764412
72 1 5.48253326 1.82751109 27.41266630
73 1 5.48253326 5.48253326 1.82751109
74 1 5.48253326 5.48253326 5.48253326
75 1 5.48253326 5.48253326 9.13755543
76 1 5.48253326 5.48253326 12.79257760
77 1 5.48253326 5.48253326 16.44759978
78 1 5.48253326 5.48253326 20.10262195
79 1 5.48253326 5.48253326 23.75764412
80 1 5.48253326 5.48253326 27.41266630
81 1 5.48253326 9.13755543 1.82751109
82 1 5.48253326 9.13755543 5.48253326
83 1 5.48253326 9.13755543 9.13755543
84 1 5.48253326 9.13755543 12.79257760
85 1 5.48253326 9.13755543 16.44759978
86 1 5.48253326 9.13755543 20.10262195
87 1 5.48253326 9.13755543 23.75764412
88 1 5.48253326 9.13755543 27.41266630
89 1 5.48253326 12.79257760 1.82751109
90 1 5.48253326 12.79257760 5.48253326
91 1 5.48253326 12.79257760 9.13755543
92 1 5.48253326 12.79257760 12.79257760
93 1 5.48253326 12.79257760 16.44759978
94 1 5.48253326 12.79257760 20.10262195
95 1 5.48253326 12.79257760 23.75764412
96 1 5.48253326 12.79257760 27.41266630
97 1 5.48253326 16.44759978 1.82751109
98 1 5.48253326 16.44759978 5.48253326
99 1 5.48253326 16.44759978 9.13755543
100 1 5.48253326 16.44759978 12.79257760
101 1 5.48253326 16.44759978 16.44759978
102 1 5.48253326 16.44759978 20.10262195
103 1 5.48253326 16.44759978 23.75764412
104 1 5.48253326 16.44759978 27.41266630
105 1 5.48253326 20.10262195 1.82751109
106 1 5.48253326 20.10262195 5.48253326
107 1 5.48253326 20.10262195 9.13755543
108 1 5.48253326 20.10262195 12.79257760
109 1 5.48253326 20.10262195 16.44759978
110 1 5.48253326 20.10262195 20.10262195
111 1 5.48253326 20.10262195 23.75764412
112 1 5.48253326 20.10262195 27.41266630
113 1 5.48253326 23.75764412 1.82751109
114 1 5.48253326 23.75764412 5.48253326
115 1 5.48253326 23.75764412 9.13755543
116 1 5.48253326 23.75764412 12.79257760
117 1 5.48253326 23.75764412 16.44759978
118 1 5.48253326 23.75764412 20.10262195
119 1 5.48253326 23.75764412 23.75764412
120 1 5.48253326 23.75764412 27.41266630
121 1 5.48253326 27.41266630 1.82751109
122 1 5.48253326 27.41266630 5.48253326
123 1 5.48253326 27.41266630 9.13755543
124 1 5.48253326 27.41266630 12.79257760
125 1 5.48253326 27.41266630 16.44759978
126 1 5.48253326 27.41266630 20.10262195
127 1 5.48253326 27.41266630 23.75764412
128 1 5.48253326 27.41266630 27.41266630
129 1 9.13755543 1.82751109 1.82751109
130 1 9.13755543 1.82751109 5.48253326
131 1 9.13755543 1.82751109 9.13755543
132 1 9.13755543 1.82751109 12.79257760
133 1 9.13755543 1.82751109 16.44759978
134 1 9.13755543 1.82751109 20.10262195
135 1 9.13755543 1.82751109 23.75764412
136 1 9.13755543 1.82751109 27.41266630
137 1 9.13755543 5.48253326 1.82751109
138 1 9.13755543 5.48253326 5.48253326
139 1 9.13755543 5.48253326 9.13755543
140 1 9.13755543 5.48253326 12.79257760
141 1 9.13755543 5.48253326 16.44759978
142 1 9.13755543 5.48253326 20.10262195
143 1 9.13755543 5.48253326 23.75764412
144 1 9.13755543 5.48253326 27.41266630
145 1 9.13755543 9.13755543 1.82751109
146 1 9.13755543 9.13755543 5.48253326
147 1 9.13755543 9.13755543 9.13755543
148 1 9.13755543 9.13755543 12.79257760
149 1 9.13755543 9.13755543 16.44759978
150 1 9.13755543 9.13755543 20.10262195
151 1 9.13755543 9.13755543 23.75764412
152 1 9.13755543 9.13755543 27.41266630
153 1 9.13755543 12.79257760 1.82751109
154 1 9.13755543 12.79257760 5.48253326
155 1 9.13755543 12.79257760 9.13755543
156 1 9.13755543 12.79257760 12.79257760
157 1 9.13755543 12.79257760 16.44759978
158 1 9.13755543 12.79257760 20.10262195
159 1 9.13755543 12.79257760 23.75764412
160 1 9.13755543 12.79257760 27.41266630
161 1 9.13755543 16.44759978 1.82751109
162 1 9.13755543 16.44759978 5.48253326
163 1 9.13755543 16.44759978 9.13755543
164 1 9.13755543 16.44759978 12.79257760
165 1 9.13755543 16.44759978 16.44759978
166 1 9.13755543 16.44759978 20.10262195
167 1 9.13755543 16.44759978 23.75764412
168 1 9.13755543 16.44759978 27.41266630
169 1 9.13755543 20.10262195 1.82751109
170 1 9.13755543 20.10262195 5.48253326
171 1 9.13755543 20.10262195 9.13755543
172 1 9.13755543 20.10262195 12.79257760
173 1 9.13755543 20.10262195 16.44759978
174 1 9.13755543 20.10262195 20.10262195
175 1 9.13755543 20.10262195 23.75764412
176 1 9.13755543 20.10262195 27.41266630
177 1 9.13755543 23.75764412 1.82751109
178 1 9.13755543 23.75764412 5.48253326
179 1 9.13755543 23.75764412 9.13755543
180 1 9.13755543 23.75764412 12.79257760
181 1 9.13755543 23.75764412 16.44759978
182 1 9.13755543 23.75764412 20.10262195
183 1 9.13755543 23.75764412 23.75764412
184 1 9.13755543 23.75764412 27.41266630
185 1 9.13755543 27.41266630 1.82751109
186 1 9.13755543 27.41266630 5.48253326
187 1 9.13755543 27.41266630 9.13755543
188 1 9.13755543 27.41266630 12.79257760
189 1 9.13755543 27.41266630 16.44759978
190 1 9.13755543 27.41266630 20.10262195
191 1 9.13755543 27.41266630 23.75764412
192 1 9.13755543 27.41266630 27.41266630
193 1 12.79257760 1.82751109 1.82751109
194 1 12.79257760 1.82751109 5.48253326
195 1 12.79257760 1.82751109 9.13755543
196 1 12.79257760 1.82751109 12.79257760
197 1 12.79257760 1.82751109 16.44759978
198 1 12.79257760 1.82751109 20.10262195
199 1 12.79257760 1.82751109 23.75764412
200 1 12.79257760 1.82751109 27.41266630
201 1 12.79257760 5.48253326 1.82751109
202 1 12.79257760 5.48253326 5.48253326
203 1 12.79257760 5.48253326 9.13755543
204 1 12.79257760 5.48253326 12.79257760
205 1 12.79257760 5.48253326 16.44759978
206 1 12.79257760 5.48253326 20.10262195
207 1 12.79257760 5.48253326 23.75764412
208 1 12.79257760 5.48253326 27.41266630
209 1 12.79257760 9.13755543 1.82751109
210 1 12.79257760 9.13755543 5.48253326
211 1 12.79257760 9.13755543 9.13755543
212 1 12.79257760 9.13755543 12.79257760
213 1 12.79257760 9.13755543 16.44759978
214 1 12.79257760 9.13755543 20.10262195
215 1 12.79257760 9.13755543 23.75764412
216 1 12.79257760 9.13755543 27.41266630
217 1 12.79257760 12.79257760 1.82751109
218 1 12.79257760 12.79257760 5.48253326
219 1 12.79257760 12.79257760 9.13755543
220 1 12.79257760 12.79257760 12.79257760
221 1 12.79257760 12.79257760 16.44759978
222 1 12.79257760 12.79257760 20.10262195
223 1 12.79257760 12.79257760 23.75764412
224 1 12.79257760 12.79257760 27.41266630
225 1 12.79257760 16.44759978 1.82751109
226 1 12.79257760 16.44759978 5.48253326
227 1 12.79257760 16.44759978 9.13755543
228 1 12.79257760 16.44759978 12.79257760
229 1 12.79257760 16.44759978 16.44759978
230 1 12.79257760 16.44759978 20.10262195
231 1 12.79257760 16.44759978 23.75764412
232 1 12.79257760 16.44759978 27.41266630
233 1 12.79257760 20.10262195 1.82751109
234 1 12.79257760 20.10262195 5.48253326
235 1 12.79257760 20.10262195 9.13755543
236 1 12.79257760 20.10262195 12.79257760
237 1 12.79257760 20.10262195 16.44759978
238 1 12.79257760 20.10262195 20.10262195
239 1 12.79257760 20.10262195 23.75764412
240 1 12.79257760 20.10262195 27.41266630
241 1 12.79257760 23.75764412 1.82751109
242 1 12.79257760 23.75764412 5.48253326
243 1 12.79257760 23.75764412 9.13755543
244 1 12.79257760 23.75764412 12.79257760
245 1 12.79257760 23.75764412 16.44759978
246 1 12.79257760 23.75764412 20.10262195
247 1 12.79257760 23.75764412 23.75764412
248 1 12.79257760 23.75764412 27.41266630
249 1 12.79257760 27.41266630 1.82751109
250 1 12.79257760 27.41266630 5.48253326
251 1 12.79257760 27.41266630 9.13755543
252 1 12.79257760 27.41266630 12.79257760
253 1 12.79257760 27.41266630 16.44759978
254 1 12.79257760 27.41266630 20.10262195
255 1 12.79257760 27.41266630 23.75764412
256 1 12.79257760 27.41266630 27.41266630
257 1 16.44759978 1.82751109 1.82751109
258 1 16.44759978 1.82751109 5.48253326
259 1 16.44759978 1.82751109 9.13755543
260 1 16.44759978 1.82751109 12.79257760
261 1 16.44759978 1.82751109 16.44759978
262 1 16.44759978 1.82751109 20.10262195
263 1 16.44759978 1.82751109 23.75764412
264 1 16.44759978 1.82751109 27.41266630
265 1 16.44759978 5.48253326 1.82751109
266 1 16.44759978 5.48253326 5.48253326
267 1 16.44759978 5.48253326 9.13755543
268 1 16.44759978 5.48253326 12.79257760
269 1 16.44759978 5.48253326 16.44759978
270 1 16.44759978 5.48253326 20.10262195
271 1 16.44759978 5.48253326 23.75764412
272 1 16.44759978 5.48253326 27.41266630
273 1 16.44759978 9.13755543 1.82751109
274 1 16.44759978 9.13755543 5.48253326
275 1 16.44759978 9.13755543 9.13755543
276 1 16.44759978 9.13755543 12.79257760
277 1 16.44759978 9.13755543 16.44759978
278 1 16.44759978 9.13755543 20.10262195
279 1 16.44759978 9.13755543 23.75764412
280 1 16.44759978 9.13755543 27.41266630
281 1 16.44759978 12.79257760 1.82751109
282 1 16.44759978 12.79257760 5.48253326
283 1 16.44759978 12.79257760 9.13755543
284 1 16.44759978 12.79257760 12.79257760
285 1 16.44759978 12.79257760 16.44759978
286 1 16.44759978 12.79257760 20.10262195
287 1 16.44759978 12.79257760 23.75764412
288 1 16.44759978 12.79257760 27.41266630
289 1 16.44759978 16.44759978 1.82751109
290 1 16.44759978 16.44759978 5.48253326
291 1 16.44759978 16.44759978 9.13755543
292 1 16.44759978 16.44759978 12.79257760
293 1 16.44759978 16.44759978 16.44759978
294 1 16.44759978 16.44759978 20.10262195
295 1 16.44759978 16.44759978 23.75764412
296 1 16.44759978 16.44759978 27.41266630
297 1 16.44759978 20.10262195 1.82751109
298 1 16.44759978 20.10262195 5.48253326
299 1 16.44759978 20.10262195 9.13755543
300 1 16.44759978 20.10262195 12.79257760
301 1 16.44759978 20.10262195 16.44759978
302 1 16.44759978 20.10262195 20.10262195
303 1 16.44759978 20.10262195 23.75764412
304 1 16.44759978 20.10262195 27.41266630
305 1 16.44759978 23.75764412 1.82751109
306 1 16.44759978 23.75764412 5.48253326
307 1 16.44759978 23.75764412 9.13755543
308 1 16.44759978 23.75764412 12.79257760
309 1 16.44759978 23.75764412 16.44759978
310 1 16.44759978 23.75764412 20.10262195
311 1 16.44759978 23.75764412 23.75764412
312 1 16.44759978 23.75764412 27.41266630
313 1 16.44759978 27.41266630 1.82751109
314 1 16.44759978 27.41266630 5.48253326
315 1 16.44759978 27.41266630 9.13755543
316 1 16.44759978 27.41266630 12.79257760
317 1 16.44759978 27.41266630 16.44759978
318 1 16.44759978 27.41266630 20.10262195
319 1 16.44759978 27.41266630 23.75764412
320 1 16.44759978 27.41266630 27.41266630
321 1 20.10262195 1.82751109 1.82751109
322 1 20.10262195 1.82751109 5.48253326
323 1 20.10262195 1.82751109 9.13755543
324 1 20.10262195 1.82751109 12.79257760
325 1 20.10262195 1.82751109 16.44759978
326 1 20.10262195 1.82751109 20.10262195
327 1 20.10262195 1.82751109 23.75764412
328 1 20.10262195 1.82751109 27.41266630
329 1 20.10262195 5.48253326 1.82751109
330 1 20.10262195 5.48253326 5.48253326
331 1 20.10262195 5.48253326 9.13755543
332 1 20.10262195 5.48253326 12.79257760
333 1 20.10262195 5.48253326 16.44759978
334 1 20.10262195 5.48253326 20.10262195
335 1 20.10262195 5.48253326 23.75764412
336 1 20.10262195 5.48253326 27.41266630
337 1 20.10262195 9.13755543 1.82751109
338 1 20.10262195 9.13755543 5.48253326
339 1 20.10262195 9.13755543 9.13755543
340 1 20.10262195 9.13755543 12.79257760
341 1 20.10262195 9.13755543 16.44759978
342 1 20.10262195 9.13755543 20.10262195
343 1 20.10262195 9.13755543 23.75764412
344 1 20.10262195 9.13755543 27.41266630
345 1 20.10262195 12.79257760 1.82751109
346 1 20.10262195 12.79257760 5.48253326
347 1 20.10262195 12.79257760 9.13755543
348 1 20.10262195 12.79257760 12.79257760
349 1 20.10262195 12.79257760 16.44759978
350 1 20.10262195 12.79257760 20.10262195
351 1 20.10262195 12.79257760 23.75764412
352 1 20.10262195 12.79257760 27.41266630
353 1 20.10262195 16.44759978 1.82751109
354 1 20.10262195 16.44759978 5.48253326
355 1 20.10262195 16.44759978 9.13755543
356 1 20.10262195 16.44759978 12.79257760
357 1 20.10262195 16.44759978 16.44759978
358 1 20.10262195 16.44759978 20.10262195
359 1 20.10262195 16.44759978 23.75764412
360 1 20.10262195 16.44759978 27.41266630
361 1 20.10262195 20.10262195 1.82751109
362 1 20.10262195 20.10262195 5.48253326
363 1 20.10262195 20.10262195 9.13755543
364 1 20.10262195 20.10262195 12.79257760
365 1 20.10262195 20.10262195 16.44759978
366 1 20.10262195 20.10262195 20.10262195
367 1 20.10262195 20.10262195 23.75764412
368 1 20.10262195 20.10262195 27.41266630
369 1 20.10262195 23.75764412 1.82751109
370 1 20.10262195 23.75764412 5.48253326
371 1 20.10262195 23.75764412 9.13755543
372 1 20.10262195 23.75764412 12.79257760
373 1 20.10262195 23.75764412 16.44759978
374 1 20.10262195 23.75764412 20.10262195
375 1 20.10262195 23.75764412 23.75764412
376 1 20.10262195 23.75764412 27.41266630
377 1 20.10262195 27.41266630 1.82751109
378 1 20.10262195 27.41266630 5.48253326
379 1 20.10262195 27.41266630 9.13755543
380 1 20.10262195 27.41266630 12.79257760
381 1 20.10262195 27.41266630 16.44759978
382 1 20.10262195 27.41266630 20.10262195
383 1 20.10262195 27.41266630 23.75764412
384 1 20.10262195 27.41266630 27.41266630
385 1 23.75764412 1.82751109 1.82751109
386 1 23.75764412 1.82751109 5.48253326
387 1 23.75764412 1.82751109 9.13755543
388 1 23.75764412 1.82751109 12.79257760
389 1 23.75764412 1.82751109 16.44759978
390 1 23.75764412 1.82751109 20.10262195
391 1 23.75764412 1.82751109 23.75764412
392 1 23.75764412 1.82751109 27.41266630
393 1 23.75764412 5.48253326 1.82751109
394 1 23.75764412 5.48253326 5.48253326
395 1 23.75764412 5.48253326 9.13755543
396 1 23.75764412 5.48253326 12.79257760
397 1 23.75764412 5.48253326 16.44759978
398 1 23.75764412 5.48253326 20.10262195
399 1 23.75764412 5.48253326 23.75764412
400 1 23.75764412 5.48253326 27.41266630
401 1 23.75764412 9.13755543 1.82751109
402 1 23.75764412 9.13755543 5.48253326
403 1 23.75764412 9.13755543 9.13755543
404 1 23.75764412 9.13755543 12.79257760
405 1 23.75764412 9.13755543 16.44759978
406 1 23.75764412 9.13755543 20.10262195
407 1 23.75764412 9.13755543 23.75764412
408 1 23.75764412 9.13755543 27.41266630
409 1 23.75764412 12.79257760 1.82751109
410 1 23.75764412 12.79257760 5.48253326
411 1 23.75764412 12.79257760 9.13755543
412 1 23.75764412 12.79257760 12.79257760
413 1 23.75764412 12.79257760 16.44759978
414 1 23.75764412 12.79257760 20.10262195
415 1 23.75764412 12.79257760 23.75764412
416 1 23.75764412 12.79257760 27.41266630
417 1 23.75764412 16.44759978 1.82751109
418 1 23.75764412 16.44759978 5.48253326
419 1 23.75764412 16.44759978 9.13755543
420 1 23.75764412 16.44759978 12.79257760
421 1 23.75764412 16.44759978 16.44759978
422 1 23.75764412 16.44759978 20.10262195
423 1 23.75764412 16.44759978 23.75764412
424 1 23.75764412 16.44759978 27.41266630
425 1 23.75764412 20.10262195 1.82751109
426 1 23.75764412 20.10262195 5.48253326
427 1 23.75764412 20.10262195 9.13755543
428 1 23.75764412 20.10262195 12.79257760
429 1 23.75764412 20.10262195 16.44759978
430 1 23.75764412 20.10262195 20.10262195
431 1 23.75764412 20.10262195 23.75764412
432 1 23.75764412 20.10262195 27.41266630
433 1 23.75764412 23.75764412 1.82751109
434 1 23.75764412 23.75764412 5.48253326
435 1 23.75764412 23.75764412 9.13755543
436 1 23.75764412 23.75764412 12.79257760
437 1 23.75764412 23.75764412 16.44759978
438 1 23.75764412 23.75764412 20.10262195
439 1 23.75764412 23.75764412 23.75764412
440 1 23.75764412 23.75764412 27.41266630
441 1 23.75764412 27.41266630 1.82751109
442 1 23.75764412 27.41266630 5.48253326
443 1 23.75764412 27.41266630 9.13755543
444 1 23.75764412 27.41266630 12.79257760
445 1 23.75764412 27.41266630 16.44759978
446 1 23.75764412 27.41266630 20.10262195
447 1 23.75764412 27.41266630 23.75764412
448 1 23.75764412 27.41266630 27.41266630
449 1 27.41266630 1.82751109 1.82751109
450 1 27.41266630 1.82751109 5.48253326
451 1 27.41266630 1.82751109 9.13755543
452 1 27.41266630 1.82751109 12.79257760
453 1 27.41266630 1.82751109 16.44759978
454 1 27.41266630 1.82751109 20.10262195
455 1 27.41266630 1.82751109 23.75764412
456 1 27.41266630 1.82751109 27.41266630
457 1 27.41266630 5.48253326 1.82751109
458 1 27.41266630 5.48253326 5.48253326
459 1 27.41266630 5.48253326 9.13755543
460 1 27.41266630 5.48253326 12.79257760
461 1 27.41266630 5.48253326 16.44759978
462 1 27.41266630 5.48253326 20.10262195
463 1 27.41266630 5.48253326 23.75764412
464 1 27.41266630 5.48253326 27.41266630
465 1 27.41266630 9.13755543 1.82751109
466 1 27.41266630 9.13755543 5.48253326
467 1 27.41266630 9.13755543 9.13755543
468 1 27.41266630 9.13755543 12.79257760
469 1 27.41266630 9.13755543 16.44759978
470 1 27.41266630 9.13755543 20.10262195
471 1 27.41266630 9.13755543 23.75764412
472 1 27.41266630 9.13755543 27.41266630
473 1 27.41266630 12.79257760 1.82751109
474 1 27.41266630 12.79257760 5.48253326
475 1 27.41266630 12.79257760 9.13755543
476 1 27.41266630 12.79257760 12.79257760
477 1 27.41266630 12.79257760 16.44759978
478 1 27.41266630 12.79257760 20.10262195
479 1 27.41266630 12.79257760 23.75764412
480 1 27.41266630 12.79257760 27.41266630
481 1 27.41266630 16.44759978 1.82751109
482 1 27.41266630 16.44759978 5.48253326
483 1 27.41266630 16.44759978 9.13755543
484 1 27.41266630 16.44759978 12.79257760
485 1 27.41266630 16.44759978 16.44759978
486 1 27.41266630 16.44759978 20.10262195
487 1 27.41266630 16.44759978 23.75764412
488 1 27.41266630 16.44759978 27.41266630
489 1 27.41266630 20.10262195 1.82751109
490 1 27.41266630 20.10262195 5.48253326
491 1 27.41266630 20.10262195 9.13755543
492 1 27.41266630 20.10262195 12.79257760
493 1 27.41266630 20.10262195 16.44759978
494 1 27.41266630 20.10262195 20.10262195
495 1 27.41266630 20.10262195 23.75764412
496 1 27.41266630 20.10262195 27.41266630
497 1 27.41266630 23.75764412 1.82751109
498 1 27.41266630 23.75764412 5.48253326
499 1 27.41266630 23.75764412 9.13755543
500 1 27.41266630 23.75764412 12.79257760
