LAMMPS Simulation Data
500 atoms
1 atom types

0 11.856311014966874 xlo xhi 
0 11.856311014966874 ylo yhi 
0 11.856311014966874 zlo zhi 

Masses

1 1.0

Atoms

1 1 0.74101944 0.74101944 0.74101944
2 1 0.74101944 0.74101944 2.22305832
3 1 0.74101944 0.74101944 3.70509719
4 1 0.74101944 0.74101944 5.18713607
5 1 0.74101944 0.74101944 6.66917495
6 1 0.74101944 0.74101944 8.15121382
7 1 0.74101944 0.74101944 9.63325270
8 1 0.74101944 0.74101944 11.11529158
9 1 0.74101944 2.22305832 0.74101944
10 1 0.74101944 2.22305832 2.22305832
11 1 0.74101944 2.22305832 3.70509719
12 1 0.74101944 2.22305832 5.18713607
13 1 0.74101944 2.22305832 6.66917495
14 1 0.74101944 2.22305832 8.15121382
15 1 0.74101944 2.22305832 9.63325270
16 1 0.74101944 2.22305832 11.11529158
17 1 0.74101944 3.70509719 0.74101944
18 1 0.74101944 3.70509719 2.22305832
19 1 0.74101944 3.70509719 3.70509719
20 1 0.74101944 3.70509719 5.18713607
21 1 0.74101944 3.70509719 6.66917495
22 1 0.74101944 3.70509719 8.15121382
23 1 0.74101944 3.70509719 9.63325270
24 1 0.74101944 3.70509719 11.11529158
25 1 0.74101944 5.18713607 0.74101944
26 1 0.74101944 5.18713607 2.22305832
27 1 0.74101944 5.18713607 3.70509719
28 1 0.74101944 5.18713607 5.18713607
29 1 0.74101944 5.18713607 6.66917495
30 1 0.74101944 5.18713607 8.15121382
31 1 0.74101944 5.18713607 9.63325270
32 1 0.74101944 5.18713607 11.11529158
33 1 0.74101944 6.66917495 0.74101944
34 1 0.74101944 6.66917495 2.22305832
35 1 0.74101944 6.66917495 3.70509719
36 1 0.74101944 6.66917495 5.18713607
37 1 0.74101944 6.66917495 6.66917495
38 1 0.74101944 6.66917495 8.15121382
39 1 0.74101944 6.66917495 9.63325270
40 1 0.74101944 6.66917495 11.11529158
41 1 0.74101944 8.15121382 0.74101944
42 1 0.74101944 8.15121382 2.22305832
43 1 0.74101944 8.15121382 3.70509719
44 1 0.74101944 8.15121382 5.18713607
45 1 0.74101944 8.15121382 6.66917495
46 1 0.74101944 8.15121382 8.15121382
47 1 0.74101944 8.15121382 9.63325270
48 1 0.74101944 8.15121382 11.11529158
49 1 0.74101944 9.63325270 0.74101944
50 1 0.74101944 9.63325270 2.22305832
51 1 0.74101944 9.63325270 3.70509719
52 1 0.74101944 9.63325270 5.18713607
53 1 0.74101944 9.63325270 6.66917495
54 1 0.74101944 9.63325270 8.15121382
55 1 0.74101944 9.63325270 9.63325270
56 1 0.74101944 9.63325270 11.11529158
57 1 0.74101944 11.11529158 0.74101944
58 1 0.74101944 11.11529158 2.22305832
59 1 0.74101944 11.11529158 3.70509719
60 1 0.74101944 11.11529158 5.18713607
61 1 0.74101944 11.11529158 6.66917495
62 1 0.74101944 11.11529158 8.15121382
63 1 0.74101944 11.11529158 9.63325270
64 1 0.74101944 11.11529158 11.11529158
65 1 2.22305832 0.74101944 0.74101944
66 1 2.22305832 0.74101944 2.22305832
67 1 2.22305832 0.74101944 3.70509719
68 1 2.22305832 0.74101944 5.18713607
69 1 2.22305832 0.74101944 6.66917495
70 1 2.22305832 0.74101944 8.15121382
71 1 2.22305832 0.74101944 9.63325270
72 1 2.22305832 0.74101944 11.11529158
73 1 2.22305832 2.22305832 0.74101944
74 1 2.22305832 2.22305832 2.22305832
75 1 2.22305832 2.22305832 3.70509719
76 1 2.22305832 2.22305832 5.18713607
77 1 2.22305832 2.22305832 6.66917495
78 1 2.22305832 2.22305832 8.15121382
79 1 2.22305832 2.22305832 9.63325270
80 1 2.22305832 2.22305832 11.11529158
81 1 2.22305832 3.70509719 0.74101944
82 1 2.22305832 3.70509719 2.22305832
83 1 2.22305832 3.70509719 3.70509719
84 1 2.22305832 3.70509719 5.18713607
85 1 2.22305832 3.70509719 6.66917495
86 1 2.22305832 3.70509719 8.15121382
87 1 2.22305832 3.70509719 9.63325270
88 1 2.22305832 3.70509719 11.11529158
89 1 2.22305832 5.18713607 0.74101944
90 1 2.22305832 5.18713607 2.22305832
91 1 2.22305832 5.18713607 3.70509719
92 1 2.22305832 5.18713607 5.18713607
93 1 2.22305832 5.18713607 6.66917495
94 1 2.22305832 5.18713607 8.15121382
95 1 2.22305832 5.18713607 9.63325270
96 1 2.22305832 5.18713607 11.11529158
97 1 2.22305832 6.66917495 0.74101944
98 1 2.22305832 6.66917495 2.22305832
99 1 2.22305832 6.66917495 3.70509719
100 1 2.22305832 6.66917495 5.18713607
101 1 2.22305832 6.66917495 6.66917495
102 1 2.22305832 6.66917495 8.15121382
103 1 2.22305832 6.66917495 9.63325270
104 1 2.22305832 6.66917495 11.11529158
105 1 2.22305832 8.15121382 0.74101944
106 1 2.22305832 8.15121382 2.22305832
107 1 2.22305832 8.15121382 3.70509719
108 1 2.22305832 8.15121382 5.18713607
109 1 2.22305832 8.15121382 6.66917495
110 1 2.22305832 8.15121382 8.15121382
111 1 2.22305832 8.15121382 9.63325270
112 1 2.22305832 8.15121382 11.11529158
113 1 2.22305832 9.63325270 0.74101944
114 1 2.22305832 9.63325270 2.22305832
115 1 2.22305832 9.63325270 3.70509719
116 1 2.22305832 9.63325270 5.18713607
117 1 2.22305832 9.63325270 6.66917495
118 1 2.22305832 9.63325270 8.15121382
119 1 2.22305832 9.63325270 9.63325270
120 1 2.22305832 9.63325270 11.11529158
121 1 2.22305832 11.11529158 0.74101944
122 1 2.22305832 11.11529158 2.22305832
123 1 2.22305832 11.11529158 3.70509719
124 1 2.22305832 11.11529158 5.18713607
125 1 2.22305832 11.11529158 6.66917495
126 1 2.22305832 11.11529158 8.15121382
127 1 2.22305832 11.11529158 9.63325270
128 1 2.22305832 11.11529158 11.11529158
129 1 3.70509719 0.74101944 0.74101944
130 1 3.70509719 0.74101944 2.22305832
131 1 3.70509719 0.74101944 3.70509719
132 1 3.70509719 0.74101944 5.18713607
133 1 3.70509719 0.74101944 6.66917495
134 1 3.70509719 0.74101944 8.15121382
135 1 3.70509719 0.74101944 9.63325270
136 1 3.70509719 0.74101944 11.11529158
137 1 3.70509719 2.22305832 0.74101944
138 1 3.70509719 2.22305832 2.22305832
139 1 3.70509719 2.22305832 3.70509719
140 1 3.70509719 2.22305832 5.18713607
141 1 3.70509719 2.22305832 6.66917495
142 1 3.70509719 2.22305832 8.15121382
143 1 3.70509719 2.22305832 9.63325270
144 1 3.70509719 2.22305832 11.11529158
145 1 3.70509719 3.70509719 0.74101944
146 1 3.70509719 3.70509719 2.22305832
147 1 3.70509719 3.70509719 3.70509719
148 1 3.70509719 3.70509719 5.18713607
149 1 3.70509719 3.70509719 6.66917495
150 1 3.70509719 3.70509719 8.15121382
151 1 3.70509719 3.70509719 9.63325270
152 1 3.70509719 3.70509719 11.11529158
153 1 3.70509719 5.18713607 0.74101944
154 1 3.70509719 5.18713607 2.22305832
155 1 3.70509719 5.18713607 3.70509719
156 1 3.70509719 5.18713607 5.18713607
157 1 3.70509719 5.18713607 6.66917495
158 1 3.70509719 5.18713607 8.15121382
159 1 3.70509719 5.18713607 9.63325270
160 1 3.70509719 5.18713607 11.11529158
161 1 3.70509719 6.66917495 0.74101944
162 1 3.70509719 6.66917495 2.22305832
163 1 3.70509719 6.66917495 3.70509719
164 1 3.70509719 6.66917495 5.18713607
165 1 3.70509719 6.66917495 6.66917495
166 1 3.70509719 6.66917495 8.15121382
167 1 3.70509719 6.66917495 9.63325270
168 1 3.70509719 6.66917495 11.11529158
169 1 3.70509719 8.15121382 0.74101944
170 1 3.70509719 8.15121382 2.22305832
171 1 3.70509719 8.15121382 3.70509719
172 1 3.70509719 8.15121382 5.18713607
173 1 3.70509719 8.15121382 6.66917495
174 1 3.70509719 8.15121382 8.15121382
175 1 3.70509719 8.15121382 9.63325270
176 1 3.70509719 8.15121382 11.11529158
177 1 3.70509719 9.63325270 0.74101944
178 1 3.70509719 9.63325270 2.22305832
179 1 3.70509719 9.63325270 3.70509719
180 1 3.70509719 9.63325270 5.18713607
181 1 3.70509719 9.63325270 6.66917495
182 1 3.70509719 9.63325270 8.15121382
183 1 3.70509719 9.63325270 9.63325270
184 1 3.70509719 9.63325270 11.11529158
185 1 3.70509719 11.11529158 0.74101944
186 1 3.70509719 11.11529158 2.22305832
187 1 3.70509719 11.11529158 3.70509719
188 1 3.70509719 11.11529158 5.18713607
189 1 3.70509719 11.11529158 6.66917495
190 1 3.70509719 11.11529158 8.15121382
191 1 3.70509719 11.11529158 9.63325270
192 1 3.70509719 11.11529158 11.11529158
193 1 5.18713607 0.74101944 0.74101944
194 1 5.18713607 0.74101944 2.22305832
195 1 5.18713607 0.74101944 3.70509719
196 1 5.18713607 0.74101944 5.18713607
197 1 5.18713607 0.74101944 6.66917495
198 1 5.18713607 0.74101944 8.15121382
199 1 5.18713607 0.74101944 9.63325270
200 1 5.18713607 0.74101944 11.11529158
201 1 5.18713607 2.22305832 0.74101944
202 1 5.18713607 2.22305832 2.22305832
203 1 5.18713607 2.22305832 3.70509719
204 1 5.18713607 2.22305832 5.18713607
205 1 5.18713607 2.22305832 6.66917495
206 1 5.18713607 2.22305832 8.15121382
207 1 5.18713607 2.22305832 9.63325270
208 1 5.18713607 2.22305832 11.11529158
209 1 5.18713607 3.70509719 0.74101944
210 1 5.18713607 3.70509719 2.22305832
211 1 5.18713607 3.70509719 3.70509719
212 1 5.18713607 3.70509719 5.18713607
213 1 5.18713607 3.70509719 6.66917495
214 1 5.18713607 3.70509719 8.15121382
215 1 5.18713607 3.70509719 9.63325270
216 1 5.18713607 3.70509719 11.11529158
217 1 5.18713607 5.18713607 0.74101944
218 1 5.18713607 5.18713607 2.22305832
219 1 5.18713607 5.18713607 3.70509719
220 1 5.18713607 5.18713607 5.18713607
221 1 5.18713607 5.18713607 6.66917495
222 1 5.18713607 5.18713607 8.15121382
223 1 5.18713607 5.18713607 9.63325270
224 1 5.18713607 5.18713607 11.11529158
225 1 5.18713607 6.66917495 0.74101944
226 1 5.18713607 6.66917495 2.22305832
227 1 5.18713607 6.66917495 3.70509719
228 1 5.18713607 6.66917495 5.18713607
229 1 5.18713607 6.66917495 6.66917495
230 1 5.18713607 6.66917495 8.15121382
231 1 5.18713607 6.66917495 9.63325270
232 1 5.18713607 6.66917495 11.11529158
233 1 5.18713607 8.15121382 0.74101944
234 1 5.18713607 8.15121382 2.22305832
235 1 5.18713607 8.15121382 3.70509719
236 1 5.18713607 8.15121382 5.18713607
237 1 5.18713607 8.15121382 6.66917495
238 1 5.18713607 8.15121382 8.15121382
239 1 5.18713607 8.15121382 9.63325270
240 1 5.18713607 8.15121382 11.11529158
241 1 5.18713607 9.63325270 0.74101944
242 1 5.18713607 9.63325270 2.22305832
243 1 5.18713607 9.63325270 3.70509719
244 1 5.18713607 9.63325270 5.18713607
245 1 5.18713607 9.63325270 6.66917495
246 1 5.18713607 9.63325270 8.15121382
247 1 5.18713607 9.63325270 9.63325270
248 1 5.18713607 9.63325270 11.11529158
249 1 5.18713607 11.11529158 0.74101944
250 1 5.18713607 11.11529158 2.22305832
251 1 5.18713607 11.11529158 3.70509719
252 1 5.18713607 11.11529158 5.18713607
253 1 5.18713607 11.11529158 6.66917495
254 1 5.18713607 11.11529158 8.15121382
255 1 5.18713607 11.11529158 9.63325270
256 1 5.18713607 11.11529158 11.11529158
257 1 6.66917495 0.74101944 0.74101944
258 1 6.66917495 0.74101944 2.22305832
259 1 6.66917495 0.74101944 3.70509719
260 1 6.66917495 0.74101944 5.18713607
261 1 6.66917495 0.74101944 6.66917495
262 1 6.66917495 0.74101944 8.15121382
263 1 6.66917495 0.74101944 9.63325270
264 1 6.66917495 0.74101944 11.11529158
265 1 6.66917495 2.22305832 0.74101944
266 1 6.66917495 2.22305832 2.22305832
267 1 6.66917495 2.22305832 3.70509719
268 1 6.66917495 2.22305832 5.18713607
269 1 6.66917495 2.22305832 6.66917495
270 1 6.66917495 2.22305832 8.15121382
271 1 6.66917495 2.22305832 9.63325270
272 1 6.66917495 2.22305832 11.11529158
273 1 6.66917495 3.70509719 0.74101944
274 1 6.66917495 3.70509719 2.22305832
275 1 6.66917495 3.70509719 3.70509719
276 1 6.66917495 3.70509719 5.18713607
277 1 6.66917495 3.70509719 6.66917495
278 1 6.66917495 3.70509719 8.15121382
279 1 6.66917495 3.70509719 9.63325270
280 1 6.66917495 3.70509719 11.11529158
281 1 6.66917495 5.18713607 0.74101944
282 1 6.66917495 5.18713607 2.22305832
283 1 6.66917495 5.18713607 3.70509719
284 1 6.66917495 5.18713607 5.18713607
285 1 6.66917495 5.18713607 6.66917495
286 1 6.66917495 5.18713607 8.15121382
287 1 6.66917495 5.18713607 9.63325270
288 1 6.66917495 5.18713607 11.11529158
289 1 6.66917495 6.66917495 0.74101944
290 1 6.66917495 6.66917495 2.22305832
291 1 6.66917495 6.66917495 3.70509719
292 1 6.66917495 6.66917495 5.18713607
293 1 6.66917495 6.66917495 6.66917495
294 1 6.66917495 6.66917495 8.15121382
295 1 6.66917495 6.66917495 9.63325270
296 1 6.66917495 6.66917495 11.11529158
297 1 6.66917495 8.15121382 0.74101944
298 1 6.66917495 8.15121382 2.22305832
299 1 6.66917495 8.15121382 3.70509719
300 1 6.66917495 8.15121382 5.18713607
301 1 6.66917495 8.15121382 6.66917495
302 1 6.66917495 8.15121382 8.15121382
303 1 6.66917495 8.15121382 9.63325270
304 1 6.66917495 8.15121382 11.11529158
305 1 6.66917495 9.63325270 0.74101944
306 1 6.66917495 9.63325270 2.22305832
307 1 6.66917495 9.63325270 3.70509719
308 1 6.66917495 9.63325270 5.18713607
309 1 6.66917495 9.63325270 6.66917495
310 1 6.66917495 9.63325270 8.15121382
311 1 6.66917495 9.63325270 9.63325270
312 1 6.66917495 9.63325270 11.11529158
313 1 6.66917495 11.11529158 0.74101944
314 1 6.66917495 11.11529158 2.22305832
315 1 6.66917495 11.11529158 3.70509719
316 1 6.66917495 11.11529158 5.18713607
317 1 6.66917495 11.11529158 6.66917495
318 1 6.66917495 11.11529158 8.15121382
319 1 6.66917495 11.11529158 9.63325270
320 1 6.66917495 11.11529158 11.11529158
321 1 8.15121382 0.74101944 0.74101944
322 1 8.15121382 0.74101944 2.22305832
323 1 8.15121382 0.74101944 3.70509719
324 1 8.15121382 0.74101944 5.18713607
325 1 8.15121382 0.74101944 6.66917495
326 1 8.15121382 0.74101944 8.15121382
327 1 8.15121382 0.74101944 9.63325270
328 1 8.15121382 0.74101944 11.11529158
329 1 8.15121382 2.22305832 0.74101944
330 1 8.15121382 2.22305832 2.22305832
331 1 8.15121382 2.22305832 3.70509719
332 1 8.15121382 2.22305832 5.18713607
333 1 8.15121382 2.22305832 6.66917495
334 1 8.15121382 2.22305832 8.15121382
335 1 8.15121382 2.22305832 9.63325270
336 1 8.15121382 2.22305832 11.11529158
337 1 8.15121382 3.70509719 0.74101944
338 1 8.15121382 3.70509719 2.22305832
339 1 8.15121382 3.70509719 3.70509719
340 1 8.15121382 3.70509719 5.18713607
341 1 8.15121382 3.70509719 6.66917495
342 1 8.15121382 3.70509719 8.15121382
343 1 8.15121382 3.70509719 9.63325270
344 1 8.15121382 3.70509719 11.11529158
345 1 8.15121382 5.18713607 0.74101944
346 1 8.15121382 5.18713607 2.22305832
347 1 8.15121382 5.18713607 3.70509719
348 1 8.15121382 5.18713607 5.18713607
349 1 8.15121382 5.18713607 6.66917495
350 1 8.15121382 5.18713607 8.15121382
351 1 8.15121382 5.18713607 9.63325270
352 1 8.15121382 5.18713607 11.11529158
353 1 8.15121382 6.66917495 0.74101944
354 1 8.15121382 6.66917495 2.22305832
355 1 8.15121382 6.66917495 3.70509719
356 1 8.15121382 6.66917495 5.18713607
357 1 8.15121382 6.66917495 6.66917495
358 1 8.15121382 6.66917495 8.15121382
359 1 8.15121382 6.66917495 9.63325270
360 1 8.15121382 6.66917495 11.11529158
361 1 8.15121382 8.15121382 0.74101944
362 1 8.15121382 8.15121382 2.22305832
363 1 8.15121382 8.15121382 3.70509719
364 1 8.15121382 8.15121382 5.18713607
365 1 8.15121382 8.15121382 6.66917495
366 1 8.15121382 8.15121382 8.15121382
367 1 8.15121382 8.15121382 9.63325270
368 1 8.15121382 8.15121382 11.11529158
369 1 8.15121382 9.63325270 0.74101944
370 1 8.15121382 9.63325270 2.22305832
371 1 8.15121382 9.63325270 3.70509719
372 1 8.15121382 9.63325270 5.18713607
373 1 8.15121382 9.63325270 6.66917495
374 1 8.15121382 9.63325270 8.15121382
375 1 8.15121382 9.63325270 9.63325270
376 1 8.15121382 9.63325270 11.11529158
377 1 8.15121382 11.11529158 0.74101944
378 1 8.15121382 11.11529158 2.22305832
379 1 8.15121382 11.11529158 3.70509719
380 1 8.15121382 11.11529158 5.18713607
381 1 8.15121382 11.11529158 6.66917495
382 1 8.15121382 11.11529158 8.15121382
383 1 8.15121382 11.11529158 9.63325270
384 1 8.15121382 11.11529158 11.11529158
385 1 9.63325270 0.74101944 0.74101944
386 1 9.63325270 0.74101944 2.22305832
387 1 9.63325270 0.74101944 3.70509719
388 1 9.63325270 0.74101944 5.18713607
389 1 9.63325270 0.74101944 6.66917495
390 1 9.63325270 0.74101944 8.15121382
391 1 9.63325270 0.74101944 9.63325270
392 1 9.63325270 0.74101944 11.11529158
393 1 9.63325270 2.22305832 0.74101944
394 1 9.63325270 2.22305832 2.22305832
395 1 9.63325270 2.22305832 3.70509719
396 1 9.63325270 2.22305832 5.18713607
397 1 9.63325270 2.22305832 6.66917495
398 1 9.63325270 2.22305832 8.15121382
399 1 9.63325270 2.22305832 9.63325270
400 1 9.63325270 2.22305832 11.11529158
401 1 9.63325270 3.70509719 0.74101944
402 1 9.63325270 3.70509719 2.22305832
403 1 9.63325270 3.70509719 3.70509719
404 1 9.63325270 3.70509719 5.18713607
405 1 9.63325270 3.70509719 6.66917495
406 1 9.63325270 3.70509719 8.15121382
407 1 9.63325270 3.70509719 9.63325270
408 1 9.63325270 3.70509719 11.11529158
409 1 9.63325270 5.18713607 0.74101944
410 1 9.63325270 5.18713607 2.22305832
411 1 9.63325270 5.18713607 3.70509719
412 1 9.63325270 5.18713607 5.18713607
413 1 9.63325270 5.18713607 6.66917495
414 1 9.63325270 5.18713607 8.15121382
415 1 9.63325270 5.18713607 9.63325270
416 1 9.63325270 5.18713607 11.11529158
417 1 9.63325270 6.66917495 0.74101944
418 1 9.63325270 6.66917495 2.22305832
419 1 9.63325270 6.66917495 3.70509719
420 1 9.63325270 6.66917495 5.18713607
421 1 9.63325270 6.66917495 6.66917495
422 1 9.63325270 6.66917495 8.15121382
423 1 9.63325270 6.66917495 9.63325270
424 1 9.63325270 6.66917495 11.11529158
425 1 9.63325270 8.15121382 0.74101944
426 1 9.63325270 8.15121382 2.22305832
427 1 9.63325270 8.15121382 3.70509719
428 1 9.63325270 8.15121382 5.18713607
429 1 9.63325270 8.15121382 6.66917495
430 1 9.63325270 8.15121382 8.15121382
431 1 9.63325270 8.15121382 9.63325270
432 1 9.63325270 8.15121382 11.11529158
433 1 9.63325270 9.63325270 0.74101944
434 1 9.63325270 9.63325270 2.22305832
435 1 9.63325270 9.63325270 3.70509719
436 1 9.63325270 9.63325270 5.18713607
437 1 9.63325270 9.63325270 6.66917495
438 1 9.63325270 9.63325270 8.15121382
439 1 9.63325270 9.63325270 9.63325270
440 1 9.63325270 9.63325270 11.11529158
441 1 9.63325270 11.11529158 0.74101944
442 1 9.63325270 11.11529158 2.22305832
443 1 9.63325270 11.11529158 3.70509719
444 1 9.63325270 11.11529158 5.18713607
445 1 9.63325270 11.11529158 6.66917495
446 1 9.63325270 11.11529158 8.15121382
447 1 9.63325270 11.11529158 9.63325270
448 1 9.63325270 11.11529158 11.11529158
449 1 11.11529158 0.74101944 0.74101944
450 1 11.11529158 0.74101944 2.22305832
451 1 11.11529158 0.74101944 3.70509719
452 1 11.11529158 0.74101944 5.18713607
453 1 11.11529158 0.74101944 6.66917495
454 1 11.11529158 0.74101944 8.15121382
455 1 11.11529158 0.74101944 9.63325270
456 1 11.11529158 0.74101944 11.11529158
457 1 11.11529158 2.22305832 0.74101944
458 1 11.11529158 2.22305832 2.22305832
459 1 11.11529158 2.22305832 3.70509719
460 1 11.11529158 2.22305832 5.18713607
461 1 11.11529158 2.22305832 6.66917495
462 1 11.11529158 2.22305832 8.15121382
463 1 11.11529158 2.22305832 9.63325270
464 1 11.11529158 2.22305832 11.11529158
465 1 11.11529158 3.70509719 0.74101944
466 1 11.11529158 3.70509719 2.22305832
467 1 11.11529158 3.70509719 3.70509719
468 1 11.11529158 3.70509719 5.18713607
469 1 11.11529158 3.70509719 6.66917495
470 1 11.11529158 3.70509719 8.15121382
471 1 11.11529158 3.70509719 9.63325270
472 1 11.11529158 3.70509719 11.11529158
473 1 11.11529158 5.18713607 0.74101944
474 1 11.11529158 5.18713607 2.22305832
475 1 11.11529158 5.18713607 3.70509719
476 1 11.11529158 5.18713607 5.18713607
477 1 11.11529158 5.18713607 6.66917495
478 1 11.11529158 5.18713607 8.15121382
479 1 11.11529158 5.18713607 9.63325270
480 1 11.11529158 5.18713607 11.11529158
481 1 11.11529158 6.66917495 0.74101944
482 1 11.11529158 6.66917495 2.22305832
483 1 11.11529158 6.66917495 3.70509719
484 1 11.11529158 6.66917495 5.18713607
485 1 11.11529158 6.66917495 6.66917495
486 1 11.11529158 6.66917495 8.15121382
487 1 11.11529158 6.66917495 9.63325270
488 1 11.11529158 6.66917495 11.11529158
489 1 11.11529158 8.15121382 0.74101944
490 1 11.11529158 8.15121382 2.22305832
491 1 11.11529158 8.15121382 3.70509719
492 1 11.11529158 8.15121382 5.18713607
493 1 11.11529158 8.15121382 6.66917495
494 1 11.11529158 8.15121382 8.15121382
495 1 11.11529158 8.15121382 9.63325270
496 1 11.11529158 8.15121382 11.11529158
497 1 11.11529158 9.63325270 0.74101944
498 1 11.11529158 9.63325270 2.22305832
499 1 11.11529158 9.63325270 3.70509719
500 1 11.11529158 9.63325270 5.18713607
