LAMMPS Simulation Data
1000 atoms
1 atom types

0 58.48 xlo xhi 
0 58.48 ylo yhi 
0 58.48 zlo zhi 

Masses

1 1.0

Atoms

1 1 2.92400000 2.92400000 2.92400000
2 1 2.92400000 2.92400000 8.77200000
3 1 2.92400000 2.92400000 14.62000000
4 1 2.92400000 2.92400000 20.46800000
5 1 2.92400000 2.92400000 26.31600000
6 1 2.92400000 2.92400000 32.16400000
7 1 2.92400000 2.92400000 38.01200000
8 1 2.92400000 2.92400000 43.86000000
9 1 2.92400000 2.92400000 49.70800000
10 1 2.92400000 2.92400000 55.55600000
11 1 2.92400000 8.77200000 2.92400000
12 1 2.92400000 8.77200000 8.77200000
13 1 2.92400000 8.77200000 14.62000000
14 1 2.92400000 8.77200000 20.46800000
15 1 2.92400000 8.77200000 26.31600000
16 1 2.92400000 8.77200000 32.16400000
17 1 2.92400000 8.77200000 38.01200000
18 1 2.92400000 8.77200000 43.86000000
19 1 2.92400000 8.77200000 49.70800000
20 1 2.92400000 8.77200000 55.55600000
21 1 2.92400000 14.62000000 2.92400000
22 1 2.92400000 14.62000000 8.77200000
23 1 2.92400000 14.62000000 14.62000000
24 1 2.92400000 14.62000000 20.46800000
25 1 2.92400000 14.62000000 26.31600000
26 1 2.92400000 14.62000000 32.16400000
27 1 2.92400000 14.62000000 38.01200000
28 1 2.92400000 14.62000000 43.86000000
29 1 2.92400000 14.62000000 49.70800000
30 1 2.92400000 14.62000000 55.55600000
31 1 2.92400000 20.46800000 2.92400000
32 1 2.92400000 20.46800000 8.77200000
33 1 2.92400000 20.46800000 14.62000000
34 1 2.92400000 20.46800000 20.46800000
35 1 2.92400000 20.46800000 26.31600000
36 1 2.92400000 20.46800000 32.16400000
37 1 2.92400000 20.46800000 38.01200000
38 1 2.92400000 20.46800000 43.86000000
39 1 2.92400000 20.46800000 49.70800000
40 1 2.92400000 20.46800000 55.55600000
41 1 2.92400000 26.31600000 2.92400000
42 1 2.92400000 26.31600000 8.77200000
43 1 2.92400000 26.31600000 14.62000000
44 1 2.92400000 26.31600000 20.46800000
45 1 2.92400000 26.31600000 26.31600000
46 1 2.92400000 26.31600000 32.16400000
47 1 2.92400000 26.31600000 38.01200000
48 1 2.92400000 26.31600000 43.86000000
49 1 2.92400000 26.31600000 49.70800000
50 1 2.92400000 26.31600000 55.55600000
51 1 2.92400000 32.16400000 2.92400000
52 1 2.92400000 32.16400000 8.77200000
53 1 2.92400000 32.16400000 14.62000000
54 1 2.92400000 32.16400000 20.46800000
55 1 2.92400000 32.16400000 26.31600000
56 1 2.92400000 32.16400000 32.16400000
57 1 2.92400000 32.16400000 38.01200000
58 1 2.92400000 32.16400000 43.86000000
59 1 2.92400000 32.16400000 49.70800000
60 1 2.92400000 32.16400000 55.55600000
61 1 2.92400000 38.01200000 2.92400000
62 1 2.92400000 38.01200000 8.77200000
63 1 2.92400000 38.01200000 14.62000000
64 1 2.92400000 38.01200000 20.46800000
65 1 2.92400000 38.01200000 26.31600000
66 1 2.92400000 38.01200000 32.16400000
67 1 2.92400000 38.01200000 38.01200000
68 1 2.92400000 38.01200000 43.86000000
69 1 2.92400000 38.01200000 49.70800000
70 1 2.92400000 38.01200000 55.55600000
71 1 2.92400000 43.86000000 2.92400000
72 1 2.92400000 43.86000000 8.77200000
73 1 2.92400000 43.86000000 14.62000000
74 1 2.92400000 43.86000000 20.46800000
75 1 2.92400000 43.86000000 26.31600000
76 1 2.92400000 43.86000000 32.16400000
77 1 2.92400000 43.86000000 38.01200000
78 1 2.92400000 43.86000000 43.86000000
79 1 2.92400000 43.86000000 49.70800000
80 1 2.92400000 43.86000000 55.55600000
81 1 2.92400000 49.70800000 2.92400000
82 1 2.92400000 49.70800000 8.77200000
83 1 2.92400000 49.70800000 14.62000000
84 1 2.92400000 49.70800000 20.46800000
85 1 2.92400000 49.70800000 26.31600000
86 1 2.92400000 49.70800000 32.16400000
87 1 2.92400000 49.70800000 38.01200000
88 1 2.92400000 49.70800000 43.86000000
89 1 2.92400000 49.70800000 49.70800000
90 1 2.92400000 49.70800000 55.55600000
91 1 2.92400000 55.55600000 2.92400000
92 1 2.92400000 55.55600000 8.77200000
93 1 2.92400000 55.55600000 14.62000000
94 1 2.92400000 55.55600000 20.46800000
95 1 2.92400000 55.55600000 26.31600000
96 1 2.92400000 55.55600000 32.16400000
97 1 2.92400000 55.55600000 38.01200000
98 1 2.92400000 55.55600000 43.86000000
99 1 2.92400000 55.55600000 49.70800000
100 1 2.92400000 55.55600000 55.55600000
101 1 8.77200000 2.92400000 2.92400000
102 1 8.77200000 2.92400000 8.77200000
103 1 8.77200000 2.92400000 14.62000000
104 1 8.77200000 2.92400000 20.46800000
105 1 8.77200000 2.92400000 26.31600000
106 1 8.77200000 2.92400000 32.16400000
107 1 8.77200000 2.92400000 38.01200000
108 1 8.77200000 2.92400000 43.86000000
109 1 8.77200000 2.92400000 49.70800000
110 1 8.77200000 2.92400000 55.55600000
111 1 8.77200000 8.77200000 2.92400000
112 1 8.77200000 8.77200000 8.77200000
113 1 8.77200000 8.77200000 14.62000000
114 1 8.77200000 8.77200000 20.46800000
115 1 8.77200000 8.77200000 26.31600000
116 1 8.77200000 8.77200000 32.16400000
117 1 8.77200000 8.77200000 38.01200000
118 1 8.77200000 8.77200000 43.86000000
119 1 8.77200000 8.77200000 49.70800000
120 1 8.77200000 8.77200000 55.55600000
121 1 8.77200000 14.62000000 2.92400000
122 1 8.77200000 14.62000000 8.77200000
123 1 8.77200000 14.62000000 14.62000000
124 1 8.77200000 14.62000000 20.46800000
125 1 8.77200000 14.62000000 26.31600000
126 1 8.77200000 14.62000000 32.16400000
127 1 8.77200000 14.62000000 38.01200000
128 1 8.77200000 14.62000000 43.86000000
129 1 8.77200000 14.62000000 49.70800000
130 1 8.77200000 14.62000000 55.55600000
131 1 8.77200000 20.46800000 2.92400000
132 1 8.77200000 20.46800000 8.77200000
133 1 8.77200000 20.46800000 14.62000000
134 1 8.77200000 20.46800000 20.46800000
135 1 8.77200000 20.46800000 26.31600000
136 1 8.77200000 20.46800000 32.16400000
137 1 8.77200000 20.46800000 38.01200000
138 1 8.77200000 20.46800000 43.86000000
139 1 8.77200000 20.46800000 49.70800000
140 1 8.77200000 20.46800000 55.55600000
141 1 8.77200000 26.31600000 2.92400000
142 1 8.77200000 26.31600000 8.77200000
143 1 8.77200000 26.31600000 14.62000000
144 1 8.77200000 26.31600000 20.46800000
145 1 8.77200000 26.31600000 26.31600000
146 1 8.77200000 26.31600000 32.16400000
147 1 8.77200000 26.31600000 38.01200000
148 1 8.77200000 26.31600000 43.86000000
149 1 8.77200000 26.31600000 49.70800000
150 1 8.77200000 26.31600000 55.55600000
151 1 8.77200000 32.16400000 2.92400000
152 1 8.77200000 32.16400000 8.77200000
153 1 8.77200000 32.16400000 14.62000000
154 1 8.77200000 32.16400000 20.46800000
155 1 8.77200000 32.16400000 26.31600000
156 1 8.77200000 32.16400000 32.16400000
157 1 8.77200000 32.16400000 38.01200000
158 1 8.77200000 32.16400000 43.86000000
159 1 8.77200000 32.16400000 49.70800000
160 1 8.77200000 32.16400000 55.55600000
161 1 8.77200000 38.01200000 2.92400000
162 1 8.77200000 38.01200000 8.77200000
163 1 8.77200000 38.01200000 14.62000000
164 1 8.77200000 38.01200000 20.46800000
165 1 8.77200000 38.01200000 26.31600000
166 1 8.77200000 38.01200000 32.16400000
167 1 8.77200000 38.01200000 38.01200000
168 1 8.77200000 38.01200000 43.86000000
169 1 8.77200000 38.01200000 49.70800000
170 1 8.77200000 38.01200000 55.55600000
171 1 8.77200000 43.86000000 2.92400000
172 1 8.77200000 43.86000000 8.77200000
173 1 8.77200000 43.86000000 14.62000000
174 1 8.77200000 43.86000000 20.46800000
175 1 8.77200000 43.86000000 26.31600000
176 1 8.77200000 43.86000000 32.16400000
177 1 8.77200000 43.86000000 38.01200000
178 1 8.77200000 43.86000000 43.86000000
179 1 8.77200000 43.86000000 49.70800000
180 1 8.77200000 43.86000000 55.55600000
181 1 8.77200000 49.70800000 2.92400000
182 1 8.77200000 49.70800000 8.77200000
183 1 8.77200000 49.70800000 14.62000000
184 1 8.77200000 49.70800000 20.46800000
185 1 8.77200000 49.70800000 26.31600000
186 1 8.77200000 49.70800000 32.16400000
187 1 8.77200000 49.70800000 38.01200000
188 1 8.77200000 49.70800000 43.86000000
189 1 8.77200000 49.70800000 49.70800000
190 1 8.77200000 49.70800000 55.55600000
191 1 8.77200000 55.55600000 2.92400000
192 1 8.77200000 55.55600000 8.77200000
193 1 8.77200000 55.55600000 14.62000000
194 1 8.77200000 55.55600000 20.46800000
195 1 8.77200000 55.55600000 26.31600000
196 1 8.77200000 55.55600000 32.16400000
197 1 8.77200000 55.55600000 38.01200000
198 1 8.77200000 55.55600000 43.86000000
199 1 8.77200000 55.55600000 49.70800000
200 1 8.77200000 55.55600000 55.55600000
201 1 14.62000000 2.92400000 2.92400000
202 1 14.62000000 2.92400000 8.77200000
203 1 14.62000000 2.92400000 14.62000000
204 1 14.62000000 2.92400000 20.46800000
205 1 14.62000000 2.92400000 26.31600000
206 1 14.62000000 2.92400000 32.16400000
207 1 14.62000000 2.92400000 38.01200000
208 1 14.62000000 2.92400000 43.86000000
209 1 14.62000000 2.92400000 49.70800000
210 1 14.62000000 2.92400000 55.55600000
211 1 14.62000000 8.77200000 2.92400000
212 1 14.62000000 8.77200000 8.77200000
213 1 14.62000000 8.77200000 14.62000000
214 1 14.62000000 8.77200000 20.46800000
215 1 14.62000000 8.77200000 26.31600000
216 1 14.62000000 8.77200000 32.16400000
217 1 14.62000000 8.77200000 38.01200000
218 1 14.62000000 8.77200000 43.86000000
219 1 14.62000000 8.77200000 49.70800000
220 1 14.62000000 8.77200000 55.55600000
221 1 14.62000000 14.62000000 2.92400000
222 1 14.62000000 14.62000000 8.77200000
223 1 14.62000000 14.62000000 14.62000000
224 1 14.62000000 14.62000000 20.46800000
225 1 14.62000000 14.62000000 26.31600000
226 1 14.62000000 14.62000000 32.16400000
227 1 14.62000000 14.62000000 38.01200000
228 1 14.62000000 14.62000000 43.86000000
229 1 14.62000000 14.62000000 49.70800000
230 1 14.62000000 14.62000000 55.55600000
231 1 14.62000000 20.46800000 2.92400000
232 1 14.62000000 20.46800000 8.77200000
233 1 14.62000000 20.46800000 14.62000000
234 1 14.62000000 20.46800000 20.46800000
235 1 14.62000000 20.46800000 26.31600000
236 1 14.62000000 20.46800000 32.16400000
237 1 14.62000000 20.46800000 38.01200000
238 1 14.62000000 20.46800000 43.86000000
239 1 14.62000000 20.46800000 49.70800000
240 1 14.62000000 20.46800000 55.55600000
241 1 14.62000000 26.31600000 2.92400000
242 1 14.62000000 26.31600000 8.77200000
243 1 14.62000000 26.31600000 14.62000000
244 1 14.62000000 26.31600000 20.46800000
245 1 14.62000000 26.31600000 26.31600000
246 1 14.62000000 26.31600000 32.16400000
247 1 14.62000000 26.31600000 38.01200000
248 1 14.62000000 26.31600000 43.86000000
249 1 14.62000000 26.31600000 49.70800000
250 1 14.62000000 26.31600000 55.55600000
251 1 14.62000000 32.16400000 2.92400000
252 1 14.62000000 32.16400000 8.77200000
253 1 14.62000000 32.16400000 14.62000000
254 1 14.62000000 32.16400000 20.46800000
255 1 14.62000000 32.16400000 26.31600000
256 1 14.62000000 32.16400000 32.16400000
257 1 14.62000000 32.16400000 38.01200000
258 1 14.62000000 32.16400000 43.86000000
259 1 14.62000000 32.16400000 49.70800000
260 1 14.62000000 32.16400000 55.55600000
261 1 14.62000000 38.01200000 2.92400000
262 1 14.62000000 38.01200000 8.77200000
263 1 14.62000000 38.01200000 14.62000000
264 1 14.62000000 38.01200000 20.46800000
265 1 14.62000000 38.01200000 26.31600000
266 1 14.62000000 38.01200000 32.16400000
267 1 14.62000000 38.01200000 38.01200000
268 1 14.62000000 38.01200000 43.86000000
269 1 14.62000000 38.01200000 49.70800000
270 1 14.62000000 38.01200000 55.55600000
271 1 14.62000000 43.86000000 2.92400000
272 1 14.62000000 43.86000000 8.77200000
273 1 14.62000000 43.86000000 14.62000000
274 1 14.62000000 43.86000000 20.46800000
275 1 14.62000000 43.86000000 26.31600000
276 1 14.62000000 43.86000000 32.16400000
277 1 14.62000000 43.86000000 38.01200000
278 1 14.62000000 43.86000000 43.86000000
279 1 14.62000000 43.86000000 49.70800000
280 1 14.62000000 43.86000000 55.55600000
281 1 14.62000000 49.70800000 2.92400000
282 1 14.62000000 49.70800000 8.77200000
283 1 14.62000000 49.70800000 14.62000000
284 1 14.62000000 49.70800000 20.46800000
285 1 14.62000000 49.70800000 26.31600000
286 1 14.62000000 49.70800000 32.16400000
287 1 14.62000000 49.70800000 38.01200000
288 1 14.62000000 49.70800000 43.86000000
289 1 14.62000000 49.70800000 49.70800000
290 1 14.62000000 49.70800000 55.55600000
291 1 14.62000000 55.55600000 2.92400000
292 1 14.62000000 55.55600000 8.77200000
293 1 14.62000000 55.55600000 14.62000000
294 1 14.62000000 55.55600000 20.46800000
295 1 14.62000000 55.55600000 26.31600000
296 1 14.62000000 55.55600000 32.16400000
297 1 14.62000000 55.55600000 38.01200000
298 1 14.62000000 55.55600000 43.86000000
299 1 14.62000000 55.55600000 49.70800000
300 1 14.62000000 55.55600000 55.55600000
301 1 20.46800000 2.92400000 2.92400000
302 1 20.46800000 2.92400000 8.77200000
303 1 20.46800000 2.92400000 14.62000000
304 1 20.46800000 2.92400000 20.46800000
305 1 20.46800000 2.92400000 26.31600000
306 1 20.46800000 2.92400000 32.16400000
307 1 20.46800000 2.92400000 38.01200000
308 1 20.46800000 2.92400000 43.86000000
309 1 20.46800000 2.92400000 49.70800000
310 1 20.46800000 2.92400000 55.55600000
311 1 20.46800000 8.77200000 2.92400000
312 1 20.46800000 8.77200000 8.77200000
313 1 20.46800000 8.77200000 14.62000000
314 1 20.46800000 8.77200000 20.46800000
315 1 20.46800000 8.77200000 26.31600000
316 1 20.46800000 8.77200000 32.16400000
317 1 20.46800000 8.77200000 38.01200000
318 1 20.46800000 8.77200000 43.86000000
319 1 20.46800000 8.77200000 49.70800000
320 1 20.46800000 8.77200000 55.55600000
321 1 20.46800000 14.62000000 2.92400000
322 1 20.46800000 14.62000000 8.77200000
323 1 20.46800000 14.62000000 14.62000000
324 1 20.46800000 14.62000000 20.46800000
325 1 20.46800000 14.62000000 26.31600000
326 1 20.46800000 14.62000000 32.16400000
327 1 20.46800000 14.62000000 38.01200000
328 1 20.46800000 14.62000000 43.86000000
329 1 20.46800000 14.62000000 49.70800000
330 1 20.46800000 14.62000000 55.55600000
331 1 20.46800000 20.46800000 2.92400000
332 1 20.46800000 20.46800000 8.77200000
333 1 20.46800000 20.46800000 14.62000000
334 1 20.46800000 20.46800000 20.46800000
335 1 20.46800000 20.46800000 26.31600000
336 1 20.46800000 20.46800000 32.16400000
337 1 20.46800000 20.46800000 38.01200000
338 1 20.46800000 20.46800000 43.86000000
339 1 20.46800000 20.46800000 49.70800000
340 1 20.46800000 20.46800000 55.55600000
341 1 20.46800000 26.31600000 2.92400000
342 1 20.46800000 26.31600000 8.77200000
343 1 20.46800000 26.31600000 14.62000000
344 1 20.46800000 26.31600000 20.46800000
345 1 20.46800000 26.31600000 26.31600000
346 1 20.46800000 26.31600000 32.16400000
347 1 20.46800000 26.31600000 38.01200000
348 1 20.46800000 26.31600000 43.86000000
349 1 20.46800000 26.31600000 49.70800000
350 1 20.46800000 26.31600000 55.55600000
351 1 20.46800000 32.16400000 2.92400000
352 1 20.46800000 32.16400000 8.77200000
353 1 20.46800000 32.16400000 14.62000000
354 1 20.46800000 32.16400000 20.46800000
355 1 20.46800000 32.16400000 26.31600000
356 1 20.46800000 32.16400000 32.16400000
357 1 20.46800000 32.16400000 38.01200000
358 1 20.46800000 32.16400000 43.86000000
359 1 20.46800000 32.16400000 49.70800000
360 1 20.46800000 32.16400000 55.55600000
361 1 20.46800000 38.01200000 2.92400000
362 1 20.46800000 38.01200000 8.77200000
363 1 20.46800000 38.01200000 14.62000000
364 1 20.46800000 38.01200000 20.46800000
365 1 20.46800000 38.01200000 26.31600000
366 1 20.46800000 38.01200000 32.16400000
367 1 20.46800000 38.01200000 38.01200000
368 1 20.46800000 38.01200000 43.86000000
369 1 20.46800000 38.01200000 49.70800000
370 1 20.46800000 38.01200000 55.55600000
371 1 20.46800000 43.86000000 2.92400000
372 1 20.46800000 43.86000000 8.77200000
373 1 20.46800000 43.86000000 14.62000000
374 1 20.46800000 43.86000000 20.46800000
375 1 20.46800000 43.86000000 26.31600000
376 1 20.46800000 43.86000000 32.16400000
377 1 20.46800000 43.86000000 38.01200000
378 1 20.46800000 43.86000000 43.86000000
379 1 20.46800000 43.86000000 49.70800000
380 1 20.46800000 43.86000000 55.55600000
381 1 20.46800000 49.70800000 2.92400000
382 1 20.46800000 49.70800000 8.77200000
383 1 20.46800000 49.70800000 14.62000000
384 1 20.46800000 49.70800000 20.46800000
385 1 20.46800000 49.70800000 26.31600000
386 1 20.46800000 49.70800000 32.16400000
387 1 20.46800000 49.70800000 38.01200000
388 1 20.46800000 49.70800000 43.86000000
389 1 20.46800000 49.70800000 49.70800000
390 1 20.46800000 49.70800000 55.55600000
391 1 20.46800000 55.55600000 2.92400000
392 1 20.46800000 55.55600000 8.77200000
393 1 20.46800000 55.55600000 14.62000000
394 1 20.46800000 55.55600000 20.46800000
395 1 20.46800000 55.55600000 26.31600000
396 1 20.46800000 55.55600000 32.16400000
397 1 20.46800000 55.55600000 38.01200000
398 1 20.46800000 55.55600000 43.86000000
399 1 20.46800000 55.55600000 49.70800000
400 1 20.46800000 55.55600000 55.55600000
401 1 26.31600000 2.92400000 2.92400000
402 1 26.31600000 2.92400000 8.77200000
403 1 26.31600000 2.92400000 14.62000000
404 1 26.31600000 2.92400000 20.46800000
405 1 26.31600000 2.92400000 26.31600000
406 1 26.31600000 2.92400000 32.16400000
407 1 26.31600000 2.92400000 38.01200000
408 1 26.31600000 2.92400000 43.86000000
409 1 26.31600000 2.92400000 49.70800000
410 1 26.31600000 2.92400000 55.55600000
411 1 26.31600000 8.77200000 2.92400000
412 1 26.31600000 8.77200000 8.77200000
413 1 26.31600000 8.77200000 14.62000000
414 1 26.31600000 8.77200000 20.46800000
415 1 26.31600000 8.77200000 26.31600000
416 1 26.31600000 8.77200000 32.16400000
417 1 26.31600000 8.77200000 38.01200000
418 1 26.31600000 8.77200000 43.86000000
419 1 26.31600000 8.77200000 49.70800000
420 1 26.31600000 8.77200000 55.55600000
421 1 26.31600000 14.62000000 2.92400000
422 1 26.31600000 14.62000000 8.77200000
423 1 26.31600000 14.62000000 14.62000000
424 1 26.31600000 14.62000000 20.46800000
425 1 26.31600000 14.62000000 26.31600000
426 1 26.31600000 14.62000000 32.16400000
427 1 26.31600000 14.62000000 38.01200000
428 1 26.31600000 14.62000000 43.86000000
429 1 26.31600000 14.62000000 49.70800000
430 1 26.31600000 14.62000000 55.55600000
431 1 26.31600000 20.46800000 2.92400000
432 1 26.31600000 20.46800000 8.77200000
433 1 26.31600000 20.46800000 14.62000000
434 1 26.31600000 20.46800000 20.46800000
435 1 26.31600000 20.46800000 26.31600000
436 1 26.31600000 20.46800000 32.16400000
437 1 26.31600000 20.46800000 38.01200000
438 1 26.31600000 20.46800000 43.86000000
439 1 26.31600000 20.46800000 49.70800000
440 1 26.31600000 20.46800000 55.55600000
441 1 26.31600000 26.31600000 2.92400000
442 1 26.31600000 26.31600000 8.77200000
443 1 26.31600000 26.31600000 14.62000000
444 1 26.31600000 26.31600000 20.46800000
445 1 26.31600000 26.31600000 26.31600000
446 1 26.31600000 26.31600000 32.16400000
447 1 26.31600000 26.31600000 38.01200000
448 1 26.31600000 26.31600000 43.86000000
449 1 26.31600000 26.31600000 49.70800000
450 1 26.31600000 26.31600000 55.55600000
451 1 26.31600000 32.16400000 2.92400000
452 1 26.31600000 32.16400000 8.77200000
453 1 26.31600000 32.16400000 14.62000000
454 1 26.31600000 32.16400000 20.46800000
455 1 26.31600000 32.16400000 26.31600000
456 1 26.31600000 32.16400000 32.16400000
457 1 26.31600000 32.16400000 38.01200000
458 1 26.31600000 32.16400000 43.86000000
459 1 26.31600000 32.16400000 49.70800000
460 1 26.31600000 32.16400000 55.55600000
461 1 26.31600000 38.01200000 2.92400000
462 1 26.31600000 38.01200000 8.77200000
463 1 26.31600000 38.01200000 14.62000000
464 1 26.31600000 38.01200000 20.46800000
465 1 26.31600000 38.01200000 26.31600000
466 1 26.31600000 38.01200000 32.16400000
467 1 26.31600000 38.01200000 38.01200000
468 1 26.31600000 38.01200000 43.86000000
469 1 26.31600000 38.01200000 49.70800000
470 1 26.31600000 38.01200000 55.55600000
471 1 26.31600000 43.86000000 2.92400000
472 1 26.31600000 43.86000000 8.77200000
473 1 26.31600000 43.86000000 14.62000000
474 1 26.31600000 43.86000000 20.46800000
475 1 26.31600000 43.86000000 26.31600000
476 1 26.31600000 43.86000000 32.16400000
477 1 26.31600000 43.86000000 38.01200000
478 1 26.31600000 43.86000000 43.86000000
479 1 26.31600000 43.86000000 49.70800000
480 1 26.31600000 43.86000000 55.55600000
481 1 26.31600000 49.70800000 2.92400000
482 1 26.31600000 49.70800000 8.77200000
483 1 26.31600000 49.70800000 14.62000000
484 1 26.31600000 49.70800000 20.46800000
485 1 26.31600000 49.70800000 26.31600000
486 1 26.31600000 49.70800000 32.16400000
487 1 26.31600000 49.70800000 38.01200000
488 1 26.31600000 49.70800000 43.86000000
489 1 26.31600000 49.70800000 49.70800000
490 1 26.31600000 49.70800000 55.55600000
491 1 26.31600000 55.55600000 2.92400000
492 1 26.31600000 55.55600000 8.77200000
493 1 26.31600000 55.55600000 14.62000000
494 1 26.31600000 55.55600000 20.46800000
495 1 26.31600000 55.55600000 26.31600000
496 1 26.31600000 55.55600000 32.16400000
497 1 26.31600000 55.55600000 38.01200000
498 1 26.31600000 55.55600000 43.86000000
499 1 26.31600000 55.55600000 49.70800000
500 1 26.31600000 55.55600000 55.55600000
501 1 32.16400000 2.92400000 2.92400000
502 1 32.16400000 2.92400000 8.77200000
503 1 32.16400000 2.92400000 14.62000000
504 1 32.16400000 2.92400000 20.46800000
505 1 32.16400000 2.92400000 26.31600000
506 1 32.16400000 2.92400000 32.16400000
507 1 32.16400000 2.92400000 38.01200000
508 1 32.16400000 2.92400000 43.86000000
509 1 32.16400000 2.92400000 49.70800000
510 1 32.16400000 2.92400000 55.55600000
511 1 32.16400000 8.77200000 2.92400000
512 1 32.16400000 8.77200000 8.77200000
513 1 32.16400000 8.77200000 14.62000000
514 1 32.16400000 8.77200000 20.46800000
515 1 32.16400000 8.77200000 26.31600000
516 1 32.16400000 8.77200000 32.16400000
517 1 32.16400000 8.77200000 38.01200000
518 1 32.16400000 8.77200000 43.86000000
519 1 32.16400000 8.77200000 49.70800000
520 1 32.16400000 8.77200000 55.55600000
521 1 32.16400000 14.62000000 2.92400000
522 1 32.16400000 14.62000000 8.77200000
523 1 32.16400000 14.62000000 14.62000000
524 1 32.16400000 14.62000000 20.46800000
525 1 32.16400000 14.62000000 26.31600000
526 1 32.16400000 14.62000000 32.16400000
527 1 32.16400000 14.62000000 38.01200000
528 1 32.16400000 14.62000000 43.86000000
529 1 32.16400000 14.62000000 49.70800000
530 1 32.16400000 14.62000000 55.55600000
531 1 32.16400000 20.46800000 2.92400000
532 1 32.16400000 20.46800000 8.77200000
533 1 32.16400000 20.46800000 14.62000000
534 1 32.16400000 20.46800000 20.46800000
535 1 32.16400000 20.46800000 26.31600000
536 1 32.16400000 20.46800000 32.16400000
537 1 32.16400000 20.46800000 38.01200000
538 1 32.16400000 20.46800000 43.86000000
539 1 32.16400000 20.46800000 49.70800000
540 1 32.16400000 20.46800000 55.55600000
541 1 32.16400000 26.31600000 2.92400000
542 1 32.16400000 26.31600000 8.77200000
543 1 32.16400000 26.31600000 14.62000000
544 1 32.16400000 26.31600000 20.46800000
545 1 32.16400000 26.31600000 26.31600000
546 1 32.16400000 26.31600000 32.16400000
547 1 32.16400000 26.31600000 38.01200000
548 1 32.16400000 26.31600000 43.86000000
549 1 32.16400000 26.31600000 49.70800000
550 1 32.16400000 26.31600000 55.55600000
551 1 32.16400000 32.16400000 2.92400000
552 1 32.16400000 32.16400000 8.77200000
553 1 32.16400000 32.16400000 14.62000000
554 1 32.16400000 32.16400000 20.46800000
555 1 32.16400000 32.16400000 26.31600000
556 1 32.16400000 32.16400000 32.16400000
557 1 32.16400000 32.16400000 38.01200000
558 1 32.16400000 32.16400000 43.86000000
559 1 32.16400000 32.16400000 49.70800000
560 1 32.16400000 32.16400000 55.55600000
561 1 32.16400000 38.01200000 2.92400000
562 1 32.16400000 38.01200000 8.77200000
563 1 32.16400000 38.01200000 14.62000000
564 1 32.16400000 38.01200000 20.46800000
565 1 32.16400000 38.01200000 26.31600000
566 1 32.16400000 38.01200000 32.16400000
567 1 32.16400000 38.01200000 38.01200000
568 1 32.16400000 38.01200000 43.86000000
569 1 32.16400000 38.01200000 49.70800000
570 1 32.16400000 38.01200000 55.55600000
571 1 32.16400000 43.86000000 2.92400000
572 1 32.16400000 43.86000000 8.77200000
573 1 32.16400000 43.86000000 14.62000000
574 1 32.16400000 43.86000000 20.46800000
575 1 32.16400000 43.86000000 26.31600000
576 1 32.16400000 43.86000000 32.16400000
577 1 32.16400000 43.86000000 38.01200000
578 1 32.16400000 43.86000000 43.86000000
579 1 32.16400000 43.86000000 49.70800000
580 1 32.16400000 43.86000000 55.55600000
581 1 32.16400000 49.70800000 2.92400000
582 1 32.16400000 49.70800000 8.77200000
583 1 32.16400000 49.70800000 14.62000000
584 1 32.16400000 49.70800000 20.46800000
585 1 32.16400000 49.70800000 26.31600000
586 1 32.16400000 49.70800000 32.16400000
587 1 32.16400000 49.70800000 38.01200000
588 1 32.16400000 49.70800000 43.86000000
589 1 32.16400000 49.70800000 49.70800000
590 1 32.16400000 49.70800000 55.55600000
591 1 32.16400000 55.55600000 2.92400000
592 1 32.16400000 55.55600000 8.77200000
593 1 32.16400000 55.55600000 14.62000000
594 1 32.16400000 55.55600000 20.46800000
595 1 32.16400000 55.55600000 26.31600000
596 1 32.16400000 55.55600000 32.16400000
597 1 32.16400000 55.55600000 38.01200000
598 1 32.16400000 55.55600000 43.86000000
599 1 32.16400000 55.55600000 49.70800000
600 1 32.16400000 55.55600000 55.55600000
601 1 38.01200000 2.92400000 2.92400000
602 1 38.01200000 2.92400000 8.77200000
603 1 38.01200000 2.92400000 14.62000000
604 1 38.01200000 2.92400000 20.46800000
605 1 38.01200000 2.92400000 26.31600000
606 1 38.01200000 2.92400000 32.16400000
607 1 38.01200000 2.92400000 38.01200000
608 1 38.01200000 2.92400000 43.86000000
609 1 38.01200000 2.92400000 49.70800000
610 1 38.01200000 2.92400000 55.55600000
611 1 38.01200000 8.77200000 2.92400000
612 1 38.01200000 8.77200000 8.77200000
613 1 38.01200000 8.77200000 14.62000000
614 1 38.01200000 8.77200000 20.46800000
615 1 38.01200000 8.77200000 26.31600000
616 1 38.01200000 8.77200000 32.16400000
617 1 38.01200000 8.77200000 38.01200000
618 1 38.01200000 8.77200000 43.86000000
619 1 38.01200000 8.77200000 49.70800000
620 1 38.01200000 8.77200000 55.55600000
621 1 38.01200000 14.62000000 2.92400000
622 1 38.01200000 14.62000000 8.77200000
623 1 38.01200000 14.62000000 14.62000000
624 1 38.01200000 14.62000000 20.46800000
625 1 38.01200000 14.62000000 26.31600000
626 1 38.01200000 14.62000000 32.16400000
627 1 38.01200000 14.62000000 38.01200000
628 1 38.01200000 14.62000000 43.86000000
629 1 38.01200000 14.62000000 49.70800000
630 1 38.01200000 14.62000000 55.55600000
631 1 38.01200000 20.46800000 2.92400000
632 1 38.01200000 20.46800000 8.77200000
633 1 38.01200000 20.46800000 14.62000000
634 1 38.01200000 20.46800000 20.46800000
635 1 38.01200000 20.46800000 26.31600000
636 1 38.01200000 20.46800000 32.16400000
637 1 38.01200000 20.46800000 38.01200000
638 1 38.01200000 20.46800000 43.86000000
639 1 38.01200000 20.46800000 49.70800000
640 1 38.01200000 20.46800000 55.55600000
641 1 38.01200000 26.31600000 2.92400000
642 1 38.01200000 26.31600000 8.77200000
643 1 38.01200000 26.31600000 14.62000000
644 1 38.01200000 26.31600000 20.46800000
645 1 38.01200000 26.31600000 26.31600000
646 1 38.01200000 26.31600000 32.16400000
647 1 38.01200000 26.31600000 38.01200000
648 1 38.01200000 26.31600000 43.86000000
649 1 38.01200000 26.31600000 49.70800000
650 1 38.01200000 26.31600000 55.55600000
651 1 38.01200000 32.16400000 2.92400000
652 1 38.01200000 32.16400000 8.77200000
653 1 38.01200000 32.16400000 14.62000000
654 1 38.01200000 32.16400000 20.46800000
655 1 38.01200000 32.16400000 26.31600000
656 1 38.01200000 32.16400000 32.16400000
657 1 38.01200000 32.16400000 38.01200000
658 1 38.01200000 32.16400000 43.86000000
659 1 38.01200000 32.16400000 49.70800000
660 1 38.01200000 32.16400000 55.55600000
661 1 38.01200000 38.01200000 2.92400000
662 1 38.01200000 38.01200000 8.77200000
663 1 38.01200000 38.01200000 14.62000000
664 1 38.01200000 38.01200000 20.46800000
665 1 38.01200000 38.01200000 26.31600000
666 1 38.01200000 38.01200000 32.16400000
667 1 38.01200000 38.01200000 38.01200000
668 1 38.01200000 38.01200000 43.86000000
669 1 38.01200000 38.01200000 49.70800000
670 1 38.01200000 38.01200000 55.55600000
671 1 38.01200000 43.86000000 2.92400000
672 1 38.01200000 43.86000000 8.77200000
673 1 38.01200000 43.86000000 14.62000000
674 1 38.01200000 43.86000000 20.46800000
675 1 38.01200000 43.86000000 26.31600000
676 1 38.01200000 43.86000000 32.16400000
677 1 38.01200000 43.86000000 38.01200000
678 1 38.01200000 43.86000000 43.86000000
679 1 38.01200000 43.86000000 49.70800000
680 1 38.01200000 43.86000000 55.55600000
681 1 38.01200000 49.70800000 2.92400000
682 1 38.01200000 49.70800000 8.77200000
683 1 38.01200000 49.70800000 14.62000000
684 1 38.01200000 49.70800000 20.46800000
685 1 38.01200000 49.70800000 26.31600000
686 1 38.01200000 49.70800000 32.16400000
687 1 38.01200000 49.70800000 38.01200000
688 1 38.01200000 49.70800000 43.86000000
689 1 38.01200000 49.70800000 49.70800000
690 1 38.01200000 49.70800000 55.55600000
691 1 38.01200000 55.55600000 2.92400000
692 1 38.01200000 55.55600000 8.77200000
693 1 38.01200000 55.55600000 14.62000000
694 1 38.01200000 55.55600000 20.46800000
695 1 38.01200000 55.55600000 26.31600000
696 1 38.01200000 55.55600000 32.16400000
697 1 38.01200000 55.55600000 38.01200000
698 1 38.01200000 55.55600000 43.86000000
699 1 38.01200000 55.55600000 49.70800000
700 1 38.01200000 55.55600000 55.55600000
701 1 43.86000000 2.92400000 2.92400000
702 1 43.86000000 2.92400000 8.77200000
703 1 43.86000000 2.92400000 14.62000000
704 1 43.86000000 2.92400000 20.46800000
705 1 43.86000000 2.92400000 26.31600000
706 1 43.86000000 2.92400000 32.16400000
707 1 43.86000000 2.92400000 38.01200000
708 1 43.86000000 2.92400000 43.86000000
709 1 43.86000000 2.92400000 49.70800000
710 1 43.86000000 2.92400000 55.55600000
711 1 43.86000000 8.77200000 2.92400000
712 1 43.86000000 8.77200000 8.77200000
713 1 43.86000000 8.77200000 14.62000000
714 1 43.86000000 8.77200000 20.46800000
715 1 43.86000000 8.77200000 26.31600000
716 1 43.86000000 8.77200000 32.16400000
717 1 43.86000000 8.77200000 38.01200000
718 1 43.86000000 8.77200000 43.86000000
719 1 43.86000000 8.77200000 49.70800000
720 1 43.86000000 8.77200000 55.55600000
721 1 43.86000000 14.62000000 2.92400000
722 1 43.86000000 14.62000000 8.77200000
723 1 43.86000000 14.62000000 14.62000000
724 1 43.86000000 14.62000000 20.46800000
725 1 43.86000000 14.62000000 26.31600000
726 1 43.86000000 14.62000000 32.16400000