LAMMPS Simulation Data
216 atoms
2 atom types

0 25.0 xlo xhi
0 25.0 ylo yhi
0 25.0 zlo zhi

Masses

1 1.0
2 1.0

Atoms

1 1 0.0 0.0 0.0
2 2 0.0 0.0 1.5
3 1 0.0 0.0 3.0
4 2 0.0 0.0 4.5
5 1 0.0 0.0 6.0
6 2 0.0 0.0 7.5
7 1 0.0 1.5 0.0
8 2 0.0 1.5 1.5
9 1 0.0 1.5 3.0
10 2 0.0 1.5 4.5
11 1 0.0 1.5 6.0
12 2 0.0 1.5 7.5
13 1 0.0 3.0 0.0
14 2 0.0 3.0 1.5
15 1 0.0 3.0 3.0
16 2 0.0 3.0 4.5
17 1 0.0 3.0 6.0
18 2 0.0 3.0 7.5
19 1 0.0 4.5 0.0
20 2 0.0 4.5 1.5
21 1 0.0 4.5 3.0
22 2 0.0 4.5 4.5
23 1 0.0 4.5 6.0
24 2 0.0 4.5 7.5
25 1 0.0 6.0 0.0
26 2 0.0 6.0 1.5
27 1 0.0 6.0 3.0
28 2 0.0 6.0 4.5
29 1 0.0 6.0 6.0
30 2 0.0 6.0 7.5
31 1 0.0 7.5 0.0
32 2 0.0 7.5 1.5
33 1 0.0 7.5 3.0
34 2 0.0 7.5 4.5
35 1 0.0 7.5 6.0
36 2 0.0 7.5 7.5
37 1 1.5 0.0 0.0
38 2 1.5 0.0 1.5
39 1 1.5 0.0 3.0
40 2 1.5 0.0 4.5
41 1 1.5 0.0 6.0
42 2 1.5 0.0 7.5
43 1 1.5 1.5 0.0
44 2 1.5 1.5 1.5
45 1 1.5 1.5 3.0
46 2 1.5 1.5 4.5
47 1 1.5 1.5 6.0
48 2 1.5 1.5 7.5
49 1 1.5 3.0 0.0
50 2 1.5 3.0 1.5
51 1 1.5 3.0 3.0
52 2 1.5 3.0 4.5
53 1 1.5 3.0 6.0
54 2 1.5 3.0 7.5
55 1 1.5 4.5 0.0
56 2 1.5 4.5 1.5
57 1 1.5 4.5 3.0
58 2 1.5 4.5 4.5
59 1 1.5 4.5 6.0
60 2 1.5 4.5 7.5
61 1 1.5 6.0 0.0
62 2 1.5 6.0 1.5
63 1 1.5 6.0 3.0
64 2 1.5 6.0 4.5
65 1 1.5 6.0 6.0
66 2 1.5 6.0 7.5
67 1 1.5 7.5 0.0
68 2 1.5 7.5 1.5
69 1 1.5 7.5 3.0
70 2 1.5 7.5 4.5
71 1 1.5 7.5 6.0
72 2 1.5 7.5 7.5
73 1 3.0 0.0 0.0
74 2 3.0 0.0 1.5
75 1 3.0 0.0 3.0
76 2 3.0 0.0 4.5
77 1 3.0 0.0 6.0
78 2 3.0 0.0 7.5
79 1 3.0 1.5 0.0
80 2 3.0 1.5 1.5
81 1 3.0 1.5 3.0
82 2 3.0 1.5 4.5
83 1 3.0 1.5 6.0
84 2 3.0 1.5 7.5
85 1 3.0 3.0 0.0
86 2 3.0 3.0 1.5
87 1 3.0 3.0 3.0
88 2 3.0 3.0 4.5
89 1 3.0 3.0 6.0
90 2 3.0 3.0 7.5
91 1 3.0 4.5 0.0
92 2 3.0 4.5 1.5
93 1 3.0 4.5 3.0
94 2 3.0 4.5 4.5
95 1 3.0 4.5 6.0
96 2 3.0 4.5 7.5
97 1 3.0 6.0 0.0
98 2 3.0 6.0 1.5
99 1 3.0 6.0 3.0
100 2 3.0 6.0 4.5
101 1 3.0 6.0 6.0
102 2 3.0 6.0 7.5
103 1 3.0 7.5 0.0
104 2 3.0 7.5 1.5
105 1 3.0 7.5 3.0
106 2 3.0 7.5 4.5
107 1 3.0 7.5 6.0
108 2 3.0 7.5 7.5
109 1 4.5 0.0 0.0
110 2 4.5 0.0 1.5
111 1 4.5 0.0 3.0
112 2 4.5 0.0 4.5
113 1 4.5 0.0 6.0
114 2 4.5 0.0 7.5
115 1 4.5 1.5 0.0
116 2 4.5 1.5 1.5
117 1 4.5 1.5 3.0
118 2 4.5 1.5 4.5
119 1 4.5 1.5 6.0
120 2 4.5 1.5 7.5
121 1 4.5 3.0 0.0
122 2 4.5 3.0 1.5
123 1 4.5 3.0 3.0
124 2 4.5 3.0 4.5
125 1 4.5 3.0 6.0
126 2 4.5 3.0 7.5
127 1 4.5 4.5 0.0
128 2 4.5 4.5 1.5
129 1 4.5 4.5 3.0
130 2 4.5 4.5 4.5
131 1 4.5 4.5 6.0
132 2 4.5 4.5 7.5
133 1 4.5 6.0 0.0
134 2 4.5 6.0 1.5
135 1 4.5 6.0 3.0
136 2 4.5 6.0 4.5
137 1 4.5 6.0 6.0
138 2 4.5 6.0 7.5
139 1 4.5 7.5 0.0
140 2 4.5 7.5 1.5
141 1 4.5 7.5 3.0
142 2 4.5 7.5 4.5
143 1 4.5 7.5 6.0
144 2 4.5 7.5 7.5
145 1 6.0 0.0 0.0
146 2 6.0 0.0 1.5
147 1 6.0 0.0 3.0
148 2 6.0 0.0 4.5
149 1 6.0 0.0 6.0
150 2 6.0 0.0 7.5
151 1 6.0 1.5 0.0
152 2 6.0 1.5 1.5
153 1 6.0 1.5 3.0
154 2 6.0 1.5 4.5
155 1 6.0 1.5 6.0
156 2 6.0 1.5 7.5
157 1 6.0 3.0 0.0
158 2 6.0 3.0 1.5
159 1 6.0 3.0 3.0
160 2 6.0 3.0 4.5
161 1 6.0 3.0 6.0
162 2 6.0 3.0 7.5
163 1 6.0 4.5 0.0
164 2 6.0 4.5 1.5
165 1 6.0 4.5 3.0
166 2 6.0 4.5 4.5
167 1 6.0 4.5 6.0
168 2 6.0 4.5 7.5
169 1 6.0 6.0 0.0
170 2 6.0 6.0 1.5
171 1 6.0 6.0 3.0
172 2 6.0 6.0 4.5
173 1 6.0 6.0 6.0
174 2 6.0 6.0 7.5
175 1 6.0 7.5 0.0
176 2 6.0 7.5 1.5
177 1 6.0 7.5 3.0
178 2 6.0 7.5 4.5
179 1 6.0 7.5 6.0
180 2 6.0 7.5 7.5
181 1 7.5 0.0 0.0
182 2 7.5 0.0 1.5
183 1 7.5 0.0 3.0
184 2 7.5 0.0 4.5
185 1 7.5 0.0 6.0
186 2 7.5 0.0 7.5
187 1 7.5 1.5 0.0
188 2 7.5 1.5 1.5
189 1 7.5 1.5 3.0
190 2 7.5 1.5 4.5
191 1 7.5 1.5 6.0
192 2 7.5 1.5 7.5
193 1 7.5 3.0 0.0
194 2 7.5 3.0 1.5
195 1 7.5 3.0 3.0
196 2 7.5 3.0 4.5
197 1 7.5 3.0 6.0
198 2 7.5 3.0 7.5
199 1 7.5 4.5 0.0
200 2 7.5 4.5 1.5
201 1 7.5 4.5 3.0
202 2 7.5 4.5 4.5
203 1 7.5 4.5 6.0
204 2 7.5 4.5 7.5
205 1 7.5 6.0 0.0
206 2 7.5 6.0 1.5
207 1 7.5 6.0 3.0
208 2 7.5 6.0 4.5
209 1 7.5 6.0 6.0
210 2 7.5 6.0 7.5
211 1 7.5 7.5 0.0
212 2 7.5 7.5 1.5
213 1 7.5 7.5 3.0
214 2 7.5 7.5 4.5
215 1 7.5 7.5 6.0
216 2 7.5 7.5 7.5
