LAMMPS Simulation Data
344 atoms
2 atom types

0 7.006796120773448 xlo xhi 
0 7.006796120773448 ylo yhi 
0 7.006796120773448 ylo yhi 

Masses

1 1.0
2 1.0

Atoms
1 1 0.4379247575483405 0.4379247575483405 0.4379247575483405
2 1 0.4379247575483405 0.4379247575483405 1.3137742726450214
3 1 0.4379247575483405 0.4379247575483405 2.189623787741702
4 1 0.4379247575483405 0.4379247575483405 3.0654733028383836
5 1 0.4379247575483405 0.4379247575483405 3.941322817935064
6 1 0.4379247575483405 0.4379247575483405 4.8171723330317455
7 1 0.4379247575483405 0.4379247575483405 5.693021848128426
8 1 0.4379247575483405 0.4379247575483405 6.5688713632251075
9 1 0.4379247575483405 1.3137742726450214 0.4379247575483405
10 1 0.4379247575483405 1.3137742726450214 1.3137742726450214
11 1 0.4379247575483405 1.3137742726450214 2.189623787741702
12 1 0.4379247575483405 1.3137742726450214 3.0654733028383836
13 1 0.4379247575483405 1.3137742726450214 3.941322817935064
14 1 0.4379247575483405 1.3137742726450214 4.8171723330317455
15 1 0.4379247575483405 1.3137742726450214 5.693021848128426
16 1 0.4379247575483405 1.3137742726450214 6.5688713632251075
17 1 0.4379247575483405 2.189623787741702 0.4379247575483405
18 1 0.4379247575483405 2.189623787741702 1.3137742726450214
19 1 0.4379247575483405 2.189623787741702 2.189623787741702
20 1 0.4379247575483405 2.189623787741702 3.0654733028383836
21 1 0.4379247575483405 2.189623787741702 3.941322817935064
22 1 0.4379247575483405 2.189623787741702 4.8171723330317455
23 1 0.4379247575483405 2.189623787741702 5.693021848128426
24 1 0.4379247575483405 2.189623787741702 6.5688713632251075
25 1 0.4379247575483405 3.0654733028383836 0.4379247575483405
26 1 0.4379247575483405 3.0654733028383836 1.3137742726450214
27 1 0.4379247575483405 3.0654733028383836 2.189623787741702
28 1 0.4379247575483405 3.0654733028383836 3.0654733028383836
29 1 0.4379247575483405 3.0654733028383836 3.941322817935064
30 1 0.4379247575483405 3.0654733028383836 4.8171723330317455
31 1 0.4379247575483405 3.0654733028383836 5.693021848128426
32 1 0.4379247575483405 3.0654733028383836 6.5688713632251075
33 1 0.4379247575483405 3.941322817935064 0.4379247575483405
34 1 0.4379247575483405 3.941322817935064 1.3137742726450214
35 1 0.4379247575483405 3.941322817935064 2.189623787741702
36 1 0.4379247575483405 3.941322817935064 3.0654733028383836
37 1 0.4379247575483405 3.941322817935064 3.941322817935064
38 1 0.4379247575483405 3.941322817935064 4.8171723330317455
39 1 0.4379247575483405 3.941322817935064 5.693021848128426
40 1 0.4379247575483405 3.941322817935064 6.5688713632251075
41 1 0.4379247575483405 4.8171723330317455 0.4379247575483405
42 1 0.4379247575483405 4.8171723330317455 1.3137742726450214
43 1 0.4379247575483405 4.8171723330317455 2.189623787741702
44 1 0.4379247575483405 4.8171723330317455 3.0654733028383836
45 1 0.4379247575483405 4.8171723330317455 3.941322817935064
46 1 0.4379247575483405 4.8171723330317455 4.8171723330317455
47 1 0.4379247575483405 4.8171723330317455 5.693021848128426
48 1 0.4379247575483405 4.8171723330317455 6.5688713632251075
49 1 0.4379247575483405 5.693021848128426 0.4379247575483405
50 1 0.4379247575483405 5.693021848128426 1.3137742726450214
51 1 0.4379247575483405 5.693021848128426 2.189623787741702
52 1 0.4379247575483405 5.693021848128426 3.0654733028383836
53 1 0.4379247575483405 5.693021848128426 3.941322817935064
54 1 0.4379247575483405 5.693021848128426 4.8171723330317455
55 1 0.4379247575483405 5.693021848128426 5.693021848128426
56 1 0.4379247575483405 5.693021848128426 6.5688713632251075
57 1 0.4379247575483405 6.5688713632251075 0.4379247575483405
58 1 0.4379247575483405 6.5688713632251075 1.3137742726450214
59 1 0.4379247575483405 6.5688713632251075 2.189623787741702
60 1 0.4379247575483405 6.5688713632251075 3.0654733028383836
61 1 0.4379247575483405 6.5688713632251075 3.941322817935064
62 1 0.4379247575483405 6.5688713632251075 4.8171723330317455
63 1 0.4379247575483405 6.5688713632251075 5.693021848128426
64 1 0.4379247575483405 6.5688713632251075 6.5688713632251075
65 1 1.3137742726450214 0.4379247575483405 0.4379247575483405
66 1 1.3137742726450214 0.4379247575483405 1.3137742726450214
67 1 1.3137742726450214 0.4379247575483405 2.189623787741702
68 1 1.3137742726450214 0.4379247575483405 3.0654733028383836
69 1 1.3137742726450214 0.4379247575483405 3.941322817935064
70 1 1.3137742726450214 0.4379247575483405 4.8171723330317455
71 1 1.3137742726450214 0.4379247575483405 5.693021848128426
72 1 1.3137742726450214 0.4379247575483405 6.5688713632251075
73 1 1.3137742726450214 1.3137742726450214 0.4379247575483405
74 1 1.3137742726450214 1.3137742726450214 1.3137742726450214
75 1 1.3137742726450214 1.3137742726450214 2.189623787741702
76 1 1.3137742726450214 1.3137742726450214 3.0654733028383836
77 1 1.3137742726450214 1.3137742726450214 3.941322817935064
78 1 1.3137742726450214 1.3137742726450214 4.8171723330317455
79 1 1.3137742726450214 1.3137742726450214 5.693021848128426
80 1 1.3137742726450214 1.3137742726450214 6.5688713632251075
81 1 1.3137742726450214 2.189623787741702 0.4379247575483405
82 1 1.3137742726450214 2.189623787741702 1.3137742726450214
83 1 1.3137742726450214 2.189623787741702 2.189623787741702
84 1 1.3137742726450214 2.189623787741702 3.0654733028383836
85 1 1.3137742726450214 2.189623787741702 3.941322817935064
86 1 1.3137742726450214 2.189623787741702 4.8171723330317455
87 1 1.3137742726450214 2.189623787741702 5.693021848128426
88 1 1.3137742726450214 2.189623787741702 6.5688713632251075
89 1 1.3137742726450214 3.0654733028383836 0.4379247575483405
90 1 1.3137742726450214 3.0654733028383836 1.3137742726450214
91 1 1.3137742726450214 3.0654733028383836 2.189623787741702
92 1 1.3137742726450214 3.0654733028383836 3.0654733028383836
93 1 1.3137742726450214 3.0654733028383836 3.941322817935064
94 1 1.3137742726450214 3.0654733028383836 4.8171723330317455
95 1 1.3137742726450214 3.0654733028383836 5.693021848128426
96 1 1.3137742726450214 3.0654733028383836 6.5688713632251075
97 1 1.3137742726450214 3.941322817935064 0.4379247575483405
98 1 1.3137742726450214 3.941322817935064 1.3137742726450214
99 1 1.3137742726450214 3.941322817935064 2.189623787741702
100 1 1.3137742726450214 3.941322817935064 3.0654733028383836
101 1 1.3137742726450214 3.941322817935064 3.941322817935064
102 1 1.3137742726450214 3.941322817935064 4.8171723330317455
103 1 1.3137742726450214 3.941322817935064 5.693021848128426
104 1 1.3137742726450214 3.941322817935064 6.5688713632251075
105 1 1.3137742726450214 4.8171723330317455 0.4379247575483405
106 1 1.3137742726450214 4.8171723330317455 1.3137742726450214
107 1 1.3137742726450214 4.8171723330317455 2.189623787741702
108 1 1.3137742726450214 4.8171723330317455 3.0654733028383836
109 1 1.3137742726450214 4.8171723330317455 3.941322817935064
110 1 1.3137742726450214 4.8171723330317455 4.8171723330317455
111 1 1.3137742726450214 4.8171723330317455 5.693021848128426
112 1 1.3137742726450214 4.8171723330317455 6.5688713632251075
113 1 1.3137742726450214 5.693021848128426 0.4379247575483405
114 1 1.3137742726450214 5.693021848128426 1.3137742726450214
115 1 1.3137742726450214 5.693021848128426 2.189623787741702
116 1 1.3137742726450214 5.693021848128426 3.0654733028383836
117 1 1.3137742726450214 5.693021848128426 3.941322817935064
118 1 1.3137742726450214 5.693021848128426 4.8171723330317455
119 1 1.3137742726450214 5.693021848128426 5.693021848128426
120 1 1.3137742726450214 5.693021848128426 6.5688713632251075
121 1 1.3137742726450214 6.5688713632251075 0.4379247575483405
122 1 1.3137742726450214 6.5688713632251075 1.3137742726450214
123 1 1.3137742726450214 6.5688713632251075 2.189623787741702
124 1 1.3137742726450214 6.5688713632251075 3.0654733028383836
125 1 1.3137742726450214 6.5688713632251075 3.941322817935064
126 1 1.3137742726450214 6.5688713632251075 4.8171723330317455
127 1 1.3137742726450214 6.5688713632251075 5.693021848128426
128 1 1.3137742726450214 6.5688713632251075 6.5688713632251075
129 1 2.189623787741702 0.4379247575483405 0.4379247575483405
130 1 2.189623787741702 0.4379247575483405 1.3137742726450214
131 1 2.189623787741702 0.4379247575483405 2.189623787741702
132 1 2.189623787741702 0.4379247575483405 3.0654733028383836
133 1 2.189623787741702 0.4379247575483405 3.941322817935064
134 1 2.189623787741702 0.4379247575483405 4.8171723330317455
135 1 2.189623787741702 0.4379247575483405 5.693021848128426
136 1 2.189623787741702 0.4379247575483405 6.5688713632251075
137 1 2.189623787741702 1.3137742726450214 0.4379247575483405
138 1 2.189623787741702 1.3137742726450214 1.3137742726450214
139 1 2.189623787741702 1.3137742726450214 2.189623787741702
140 1 2.189623787741702 1.3137742726450214 3.0654733028383836
141 1 2.189623787741702 1.3137742726450214 3.941322817935064
142 1 2.189623787741702 1.3137742726450214 4.8171723330317455
143 1 2.189623787741702 1.3137742726450214 5.693021848128426
144 1 2.189623787741702 1.3137742726450214 6.5688713632251075
145 1 2.189623787741702 2.189623787741702 0.4379247575483405
146 1 2.189623787741702 2.189623787741702 1.3137742726450214
147 1 2.189623787741702 2.189623787741702 2.189623787741702
148 1 2.189623787741702 2.189623787741702 3.0654733028383836
149 1 2.189623787741702 2.189623787741702 3.941322817935064
150 1 2.189623787741702 2.189623787741702 4.8171723330317455
151 1 2.189623787741702 2.189623787741702 5.693021848128426
152 1 2.189623787741702 2.189623787741702 6.5688713632251075
153 1 2.189623787741702 3.0654733028383836 0.4379247575483405
154 1 2.189623787741702 3.0654733028383836 1.3137742726450214
155 1 2.189623787741702 3.0654733028383836 2.189623787741702
156 1 2.189623787741702 3.0654733028383836 3.0654733028383836
157 1 2.189623787741702 3.0654733028383836 3.941322817935064
158 1 2.189623787741702 3.0654733028383836 4.8171723330317455
159 1 2.189623787741702 3.0654733028383836 5.693021848128426
160 1 2.189623787741702 3.0654733028383836 6.5688713632251075
161 1 2.189623787741702 3.941322817935064 0.4379247575483405
162 1 2.189623787741702 3.941322817935064 1.3137742726450214
163 1 2.189623787741702 3.941322817935064 2.189623787741702
164 1 2.189623787741702 3.941322817935064 3.0654733028383836
165 1 2.189623787741702 3.941322817935064 3.941322817935064
166 1 2.189623787741702 3.941322817935064 4.8171723330317455
167 1 2.189623787741702 3.941322817935064 5.693021848128426
168 1 2.189623787741702 3.941322817935064 6.5688713632251075
169 1 2.189623787741702 4.8171723330317455 0.4379247575483405
170 1 2.189623787741702 4.8171723330317455 1.3137742726450214
171 1 2.189623787741702 4.8171723330317455 2.189623787741702
172 1 2.189623787741702 4.8171723330317455 3.0654733028383836
173 1 2.189623787741702 4.8171723330317455 3.941322817935064
174 1 2.189623787741702 4.8171723330317455 4.8171723330317455
175 1 2.189623787741702 4.8171723330317455 5.693021848128426
176 1 2.189623787741702 4.8171723330317455 6.5688713632251075
177 1 2.189623787741702 5.693021848128426 0.4379247575483405
178 1 2.189623787741702 5.693021848128426 1.3137742726450214
179 1 2.189623787741702 5.693021848128426 2.189623787741702
180 1 2.189623787741702 5.693021848128426 3.0654733028383836
181 1 2.189623787741702 5.693021848128426 3.941322817935064
182 1 2.189623787741702 5.693021848128426 4.8171723330317455
183 1 2.189623787741702 5.693021848128426 5.693021848128426
184 1 2.189623787741702 5.693021848128426 6.5688713632251075
185 1 2.189623787741702 6.5688713632251075 0.4379247575483405
186 1 2.189623787741702 6.5688713632251075 1.3137742726450214
187 1 2.189623787741702 6.5688713632251075 2.189623787741702
188 1 2.189623787741702 6.5688713632251075 3.0654733028383836
189 1 2.189623787741702 6.5688713632251075 3.941322817935064
190 1 2.189623787741702 6.5688713632251075 4.8171723330317455
191 1 2.189623787741702 6.5688713632251075 5.693021848128426
192 1 2.189623787741702 6.5688713632251075 6.5688713632251075
193 1 3.0654733028383836 0.4379247575483405 0.4379247575483405
194 1 3.0654733028383836 0.4379247575483405 1.3137742726450214
195 1 3.0654733028383836 0.4379247575483405 2.189623787741702
196 1 3.0654733028383836 0.4379247575483405 3.0654733028383836
197 1 3.0654733028383836 0.4379247575483405 3.941322817935064
198 1 3.0654733028383836 0.4379247575483405 4.8171723330317455
199 1 3.0654733028383836 0.4379247575483405 5.693021848128426
200 1 3.0654733028383836 0.4379247575483405 6.5688713632251075
201 1 3.0654733028383836 1.3137742726450214 0.4379247575483405
202 1 3.0654733028383836 1.3137742726450214 1.3137742726450214
203 1 3.0654733028383836 1.3137742726450214 2.189623787741702
204 1 3.0654733028383836 1.3137742726450214 3.0654733028383836
205 1 3.0654733028383836 1.3137742726450214 3.941322817935064
206 1 3.0654733028383836 1.3137742726450214 4.8171723330317455
207 1 3.0654733028383836 1.3137742726450214 5.693021848128426
208 1 3.0654733028383836 1.3137742726450214 6.5688713632251075
209 1 3.0654733028383836 2.189623787741702 0.4379247575483405
210 1 3.0654733028383836 2.189623787741702 1.3137742726450214
211 1 3.0654733028383836 2.189623787741702 2.189623787741702
212 1 3.0654733028383836 2.189623787741702 3.0654733028383836
213 1 3.0654733028383836 2.189623787741702 3.941322817935064
214 1 3.0654733028383836 2.189623787741702 4.8171723330317455
215 1 3.0654733028383836 2.189623787741702 5.693021848128426
216 1 3.0654733028383836 2.189623787741702 6.5688713632251075
217 2 3.0654733028383836 3.0654733028383836 0.4379247575483405
218 2 3.0654733028383836 3.0654733028383836 1.3137742726450214
219 2 3.0654733028383836 3.0654733028383836 2.189623787741702
220 2 3.0654733028383836 3.0654733028383836 3.0654733028383836
221 2 3.0654733028383836 3.0654733028383836 3.941322817935064
222 2 3.0654733028383836 3.0654733028383836 4.8171723330317455
223 2 3.0654733028383836 3.0654733028383836 5.693021848128426
224 2 3.0654733028383836 3.0654733028383836 6.5688713632251075
225 2 3.0654733028383836 3.941322817935064 0.4379247575483405
226 2 3.0654733028383836 3.941322817935064 1.3137742726450214
227 2 3.0654733028383836 3.941322817935064 2.189623787741702
228 2 3.0654733028383836 3.941322817935064 3.0654733028383836
229 2 3.0654733028383836 3.941322817935064 3.941322817935064
230 2 3.0654733028383836 3.941322817935064 4.8171723330317455
231 2 3.0654733028383836 3.941322817935064 5.693021848128426
232 2 3.0654733028383836 3.941322817935064 6.5688713632251075
233 2 3.0654733028383836 4.8171723330317455 0.4379247575483405
234 2 3.0654733028383836 4.8171723330317455 1.3137742726450214
235 2 3.0654733028383836 4.8171723330317455 2.189623787741702
236 2 3.0654733028383836 4.8171723330317455 3.0654733028383836
237 2 3.0654733028383836 4.8171723330317455 3.941322817935064
238 2 3.0654733028383836 4.8171723330317455 4.8171723330317455
239 2 3.0654733028383836 4.8171723330317455 5.693021848128426
240 2 3.0654733028383836 4.8171723330317455 6.5688713632251075
241 2 3.0654733028383836 5.693021848128426 0.4379247575483405
242 2 3.0654733028383836 5.693021848128426 1.3137742726450214
243 2 3.0654733028383836 5.693021848128426 2.189623787741702
244 2 3.0654733028383836 5.693021848128426 3.0654733028383836
245 2 3.0654733028383836 5.693021848128426 3.941322817935064
246 2 3.0654733028383836 5.693021848128426 4.8171723330317455
247 2 3.0654733028383836 5.693021848128426 5.693021848128426
248 2 3.0654733028383836 5.693021848128426 6.5688713632251075
249 2 3.0654733028383836 6.5688713632251075 0.4379247575483405
250 2 3.0654733028383836 6.5688713632251075 1.3137742726450214
251 2 3.0654733028383836 6.5688713632251075 2.189623787741702
252 2 3.0654733028383836 6.5688713632251075 3.0654733028383836
253 2 3.0654733028383836 6.5688713632251075 3.941322817935064
254 2 3.0654733028383836 6.5688713632251075 4.8171723330317455
255 2 3.0654733028383836 6.5688713632251075 5.693021848128426
256 2 3.0654733028383836 6.5688713632251075 6.5688713632251075
257 2 3.941322817935064 0.4379247575483405 0.4379247575483405
258 2 3.941322817935064 0.4379247575483405 1.3137742726450214
259 2 3.941322817935064 0.4379247575483405 2.189623787741702
260 2 3.941322817935064 0.4379247575483405 3.0654733028383836
261 2 3.941322817935064 0.4379247575483405 3.941322817935064
262 2 3.941322817935064 0.4379247575483405 4.8171723330317455
263 2 3.941322817935064 0.4379247575483405 5.693021848128426
264 2 3.941322817935064 0.4379247575483405 6.5688713632251075
265 2 3.941322817935064 1.3137742726450214 0.4379247575483405
266 2 3.941322817935064 1.3137742726450214 1.3137742726450214
267 2 3.941322817935064 1.3137742726450214 2.189623787741702
268 2 3.941322817935064 1.3137742726450214 3.0654733028383836
269 2 3.941322817935064 1.3137742726450214 3.941322817935064
270 2 3.941322817935064 1.3137742726450214 4.8171723330317455
271 2 3.941322817935064 1.3137742726450214 5.693021848128426
272 2 3.941322817935064 1.3137742726450214 6.5688713632251075
273 2 3.941322817935064 2.189623787741702 0.4379247575483405
274 2 3.941322817935064 2.189623787741702 1.3137742726450214
275 2 3.941322817935064 2.189623787741702 2.189623787741702
276 2 3.941322817935064 2.189623787741702 3.0654733028383836
277 2 3.941322817935064 2.189623787741702 3.941322817935064
278 2 3.941322817935064 2.189623787741702 4.8171723330317455
279 2 3.941322817935064 2.189623787741702 5.693021848128426
280 2 3.941322817935064 2.189623787741702 6.5688713632251075
281 2 3.941322817935064 3.0654733028383836 0.4379247575483405
282 2 3.941322817935064 3.0654733028383836 1.3137742726450214
283 2 3.941322817935064 3.0654733028383836 2.189623787741702
284 2 3.941322817935064 3.0654733028383836 3.0654733028383836
285 2 3.941322817935064 3.0654733028383836 3.941322817935064
286 2 3.941322817935064 3.0654733028383836 4.8171723330317455
287 2 3.941322817935064 3.0654733028383836 5.693021848128426
288 2 3.941322817935064 3.0654733028383836 6.5688713632251075
289 2 3.941322817935064 3.941322817935064 0.4379247575483405
290 2 3.941322817935064 3.941322817935064 1.3137742726450214
291 2 3.941322817935064 3.941322817935064 2.189623787741702
292 2 3.941322817935064 3.941322817935064 3.0654733028383836
293 2 3.941322817935064 3.941322817935064 3.941322817935064
294 2 3.941322817935064 3.941322817935064 4.8171723330317455
295 2 3.941322817935064 3.941322817935064 5.693021848128426
296 2 3.941322817935064 3.941322817935064 6.5688713632251075
297 2 3.941322817935064 4.8171723330317455 0.4379247575483405
298 2 3.941322817935064 4.8171723330317455 1.3137742726450214
299 2 3.941322817935064 4.8171723330317455 2.189623787741702
300 2 3.941322817935064 4.8171723330317455 3.0654733028383836
301 2 3.941322817935064 4.8171723330317455 3.941322817935064
302 2 3.941322817935064 4.8171723330317455 4.8171723330317455
303 2 3.941322817935064 4.8171723330317455 5.693021848128426
304 2 3.941322817935064 4.8171723330317455 6.5688713632251075
305 2 3.941322817935064 5.693021848128426 0.4379247575483405
306 2 3.941322817935064 5.693021848128426 1.3137742726450214
307 2 3.941322817935064 5.693021848128426 2.189623787741702
308 2 3.941322817935064 5.693021848128426 3.0654733028383836
309 2 3.941322817935064 5.693021848128426 3.941322817935064
310 2 3.941322817935064 5.693021848128426 4.8171723330317455
311 2 3.941322817935064 5.693021848128426 5.693021848128426
312 2 3.941322817935064 5.693021848128426 6.5688713632251075
313 2 3.941322817935064 6.5688713632251075 0.4379247575483405
314 2 3.941322817935064 6.5688713632251075 1.3137742726450214
315 2 3.941322817935064 6.5688713632251075 2.189623787741702
316 2 3.941322817935064 6.5688713632251075 3.0654733028383836
317 2 3.941322817935064 6.5688713632251075 3.941322817935064
318 2 3.941322817935064 6.5688713632251075 4.8171723330317455
319 2 3.941322817935064 6.5688713632251075 5.693021848128426
320 2 3.941322817935064 6.5688713632251075 6.5688713632251075
321 2 4.8171723330317455 0.4379247575483405 0.4379247575483405
322 2 4.8171723330317455 0.4379247575483405 1.3137742726450214
323 2 4.8171723330317455 0.4379247575483405 2.189623787741702
324 2 4.8171723330317455 0.4379247575483405 3.0654733028383836
325 2 4.8171723330317455 0.4379247575483405 3.941322817935064
326 2 4.8171723330317455 0.4379247575483405 4.8171723330317455
327 2 4.8171723330317455 0.4379247575483405 5.693021848128426
328 2 4.8171723330317455 0.4379247575483405 6.5688713632251075
329 2 4.8171723330317455 1.3137742726450214 0.4379247575483405
330 2 4.8171723330317455 1.3137742726450214 1.3137742726450214
331 2 4.8171723330317455 1.3137742726450214 2.189623787741702
332 2 4.8171723330317455 1.3137742726450214 3.0654733028383836
333 2 4.8171723330317455 1.3137742726450214 3.941322817935064
334 2 4.8171723330317455 1.3137742726450214 4.8171723330317455
335 2 4.8171723330317455 1.3137742726450214 5.693021848128426
336 2 4.8171723330317455 1.3137742726450214 6.5688713632251075
337 2 4.8171723330317455 2.189623787741702 0.4379247575483405
338 2 4.8171723330317455 2.189623787741702 1.3137742726450214
339 2 4.8171723330317455 2.189623787741702 2.189623787741702
340 2 4.8171723330317455 2.189623787741702 3.0654733028383836
341 2 4.8171723330317455 2.189623787741702 3.941322817935064
342 2 4.8171723330317455 2.189623787741702 4.8171723330317455
343 2 4.8171723330317455 2.189623787741702 5.693021848128426
344 2 4.8171723330317455 2.189623787741702 6.5688713632251075
