LAMMPS Simulation Data
512 atoms
2 atom types

0 46.78 xlo xhi 
0 46.78 ylo yhi 
0 46.78 zlo zhi 

Masses

1 1.0
2 1.0

Atoms

1 1 2.92375000 2.92375000 2.92375000
2 1 2.92375000 2.92375000 8.77125000
3 1 2.92375000 2.92375000 14.61875000
4 1 2.92375000 2.92375000 20.46625000
5 1 2.92375000 2.92375000 26.31375000
6 1 2.92375000 2.92375000 32.16125000
7 1 2.92375000 2.92375000 38.00875000
8 1 2.92375000 2.92375000 43.85625000
9 1 2.92375000 8.77125000 2.92375000
10 1 2.92375000 8.77125000 8.77125000
11 1 2.92375000 8.77125000 14.61875000
12 1 2.92375000 8.77125000 20.46625000
13 1 2.92375000 8.77125000 26.31375000
14 1 2.92375000 8.77125000 32.16125000
15 1 2.92375000 8.77125000 38.00875000
16 1 2.92375000 8.77125000 43.85625000
17 1 2.92375000 14.61875000 2.92375000
18 1 2.92375000 14.61875000 8.77125000
19 1 2.92375000 14.61875000 14.61875000
20 1 2.92375000 14.61875000 20.46625000
21 1 2.92375000 14.61875000 26.31375000
22 1 2.92375000 14.61875000 32.16125000
23 1 2.92375000 14.61875000 38.00875000
24 1 2.92375000 14.61875000 43.85625000
25 1 2.92375000 20.46625000 2.92375000
26 1 2.92375000 20.46625000 8.77125000
27 1 2.92375000 20.46625000 14.61875000
28 1 2.92375000 20.46625000 20.46625000
29 1 2.92375000 20.46625000 26.31375000
30 1 2.92375000 20.46625000 32.16125000
31 1 2.92375000 20.46625000 38.00875000
32 1 2.92375000 20.46625000 43.85625000
33 1 2.92375000 26.31375000 2.92375000
34 1 2.92375000 26.31375000 8.77125000
35 1 2.92375000 26.31375000 14.61875000
36 1 2.92375000 26.31375000 20.46625000
37 1 2.92375000 26.31375000 26.31375000
38 1 2.92375000 26.31375000 32.16125000
39 1 2.92375000 26.31375000 38.00875000
40 1 2.92375000 26.31375000 43.85625000
41 1 2.92375000 32.16125000 2.92375000
42 1 2.92375000 32.16125000 8.77125000
43 1 2.92375000 32.16125000 14.61875000
44 1 2.92375000 32.16125000 20.46625000
45 1 2.92375000 32.16125000 26.31375000
46 1 2.92375000 32.16125000 32.16125000
47 1 2.92375000 32.16125000 38.00875000
48 1 2.92375000 32.16125000 43.85625000
49 1 2.92375000 38.00875000 2.92375000
50 1 2.92375000 38.00875000 8.77125000
51 1 2.92375000 38.00875000 14.61875000
52 1 2.92375000 38.00875000 20.46625000
53 1 2.92375000 38.00875000 26.31375000
54 1 2.92375000 38.00875000 32.16125000
55 1 2.92375000 38.00875000 38.00875000
56 1 2.92375000 38.00875000 43.85625000
57 1 2.92375000 43.85625000 2.92375000
58 1 2.92375000 43.85625000 8.77125000
59 1 2.92375000 43.85625000 14.61875000
60 1 2.92375000 43.85625000 20.46625000
61 1 2.92375000 43.85625000 26.31375000
62 1 2.92375000 43.85625000 32.16125000
63 1 2.92375000 43.85625000 38.00875000
64 1 2.92375000 43.85625000 43.85625000
65 1 8.77125000 2.92375000 2.92375000
66 1 8.77125000 2.92375000 8.77125000
67 1 8.77125000 2.92375000 14.61875000
68 1 8.77125000 2.92375000 20.46625000
69 1 8.77125000 2.92375000 26.31375000
70 1 8.77125000 2.92375000 32.16125000
71 1 8.77125000 2.92375000 38.00875000
72 1 8.77125000 2.92375000 43.85625000
73 1 8.77125000 8.77125000 2.92375000
74 1 8.77125000 8.77125000 8.77125000
75 1 8.77125000 8.77125000 14.61875000
76 1 8.77125000 8.77125000 20.46625000
77 1 8.77125000 8.77125000 26.31375000
78 1 8.77125000 8.77125000 32.16125000
79 1 8.77125000 8.77125000 38.00875000
80 1 8.77125000 8.77125000 43.85625000
81 1 8.77125000 14.61875000 2.92375000
82 1 8.77125000 14.61875000 8.77125000
83 1 8.77125000 14.61875000 14.61875000
84 1 8.77125000 14.61875000 20.46625000
85 1 8.77125000 14.61875000 26.31375000
86 1 8.77125000 14.61875000 32.16125000
87 1 8.77125000 14.61875000 38.00875000
88 1 8.77125000 14.61875000 43.85625000
89 1 8.77125000 20.46625000 2.92375000
90 1 8.77125000 20.46625000 8.77125000
91 1 8.77125000 20.46625000 14.61875000
92 1 8.77125000 20.46625000 20.46625000
93 1 8.77125000 20.46625000 26.31375000
94 1 8.77125000 20.46625000 32.16125000
95 1 8.77125000 20.46625000 38.00875000
96 1 8.77125000 20.46625000 43.85625000
97 1 8.77125000 26.31375000 2.92375000
98 1 8.77125000 26.31375000 8.77125000
99 1 8.77125000 26.31375000 14.61875000
100 1 8.77125000 26.31375000 20.46625000
101 1 8.77125000 26.31375000 26.31375000
102 1 8.77125000 26.31375000 32.16125000
103 1 8.77125000 26.31375000 38.00875000
104 1 8.77125000 26.31375000 43.85625000
105 1 8.77125000 32.16125000 2.92375000
106 1 8.77125000 32.16125000 8.77125000
107 1 8.77125000 32.16125000 14.61875000
108 1 8.77125000 32.16125000 20.46625000
109 1 8.77125000 32.16125000 26.31375000
110 1 8.77125000 32.16125000 32.16125000
111 1 8.77125000 32.16125000 38.00875000
112 1 8.77125000 32.16125000 43.85625000
113 1 8.77125000 38.00875000 2.92375000
114 1 8.77125000 38.00875000 8.77125000
115 1 8.77125000 38.00875000 14.61875000
116 1 8.77125000 38.00875000 20.46625000
117 1 8.77125000 38.00875000 26.31375000
118 1 8.77125000 38.00875000 32.16125000
119 1 8.77125000 38.00875000 38.00875000
120 1 8.77125000 38.00875000 43.85625000
121 1 8.77125000 43.85625000 2.92375000
122 1 8.77125000 43.85625000 8.77125000
123 1 8.77125000 43.85625000 14.61875000
124 1 8.77125000 43.85625000 20.46625000
125 1 8.77125000 43.85625000 26.31375000
126 1 8.77125000 43.85625000 32.16125000
127 1 8.77125000 43.85625000 38.00875000
128 1 8.77125000 43.85625000 43.85625000
129 1 14.61875000 2.92375000 2.92375000
130 1 14.61875000 2.92375000 8.77125000
131 1 14.61875000 2.92375000 14.61875000
132 1 14.61875000 2.92375000 20.46625000
133 1 14.61875000 2.92375000 26.31375000
134 1 14.61875000 2.92375000 32.16125000
135 1 14.61875000 2.92375000 38.00875000
136 1 14.61875000 2.92375000 43.85625000
137 1 14.61875000 8.77125000 2.92375000
138 1 14.61875000 8.77125000 8.77125000
139 1 14.61875000 8.77125000 14.61875000
140 1 14.61875000 8.77125000 20.46625000
141 1 14.61875000 8.77125000 26.31375000
142 1 14.61875000 8.77125000 32.16125000
143 1 14.61875000 8.77125000 38.00875000
144 1 14.61875000 8.77125000 43.85625000
145 1 14.61875000 14.61875000 2.92375000
146 1 14.61875000 14.61875000 8.77125000
147 1 14.61875000 14.61875000 14.61875000
148 1 14.61875000 14.61875000 20.46625000
149 1 14.61875000 14.61875000 26.31375000
150 1 14.61875000 14.61875000 32.16125000
151 1 14.61875000 14.61875000 38.00875000
152 1 14.61875000 14.61875000 43.85625000
153 1 14.61875000 20.46625000 2.92375000
154 1 14.61875000 20.46625000 8.77125000
155 1 14.61875000 20.46625000 14.61875000
156 1 14.61875000 20.46625000 20.46625000
157 1 14.61875000 20.46625000 26.31375000
158 1 14.61875000 20.46625000 32.16125000
159 1 14.61875000 20.46625000 38.00875000
160 1 14.61875000 20.46625000 43.85625000
161 1 14.61875000 26.31375000 2.92375000
162 1 14.61875000 26.31375000 8.77125000
163 1 14.61875000 26.31375000 14.61875000
164 1 14.61875000 26.31375000 20.46625000
165 1 14.61875000 26.31375000 26.31375000
166 1 14.61875000 26.31375000 32.16125000
167 1 14.61875000 26.31375000 38.00875000
168 1 14.61875000 26.31375000 43.85625000
169 1 14.61875000 32.16125000 2.92375000
170 1 14.61875000 32.16125000 8.77125000
171 1 14.61875000 32.16125000 14.61875000
172 1 14.61875000 32.16125000 20.46625000
173 1 14.61875000 32.16125000 26.31375000
174 1 14.61875000 32.16125000 32.16125000
175 1 14.61875000 32.16125000 38.00875000
176 1 14.61875000 32.16125000 43.85625000
177 1 14.61875000 38.00875000 2.92375000
178 1 14.61875000 38.00875000 8.77125000
179 1 14.61875000 38.00875000 14.61875000
180 1 14.61875000 38.00875000 20.46625000
181 1 14.61875000 38.00875000 26.31375000
182 1 14.61875000 38.00875000 32.16125000
183 1 14.61875000 38.00875000 38.00875000
184 1 14.61875000 38.00875000 43.85625000
185 1 14.61875000 43.85625000 2.92375000
186 1 14.61875000 43.85625000 8.77125000
187 1 14.61875000 43.85625000 14.61875000
188 1 14.61875000 43.85625000 20.46625000
189 1 14.61875000 43.85625000 26.31375000
190 1 14.61875000 43.85625000 32.16125000
191 1 14.61875000 43.85625000 38.00875000
192 1 14.61875000 43.85625000 43.85625000
193 1 20.46625000 2.92375000 2.92375000
194 1 20.46625000 2.92375000 8.77125000
195 1 20.46625000 2.92375000 14.61875000
196 1 20.46625000 2.92375000 20.46625000
197 1 20.46625000 2.92375000 26.31375000
198 1 20.46625000 2.92375000 32.16125000
199 1 20.46625000 2.92375000 38.00875000
200 1 20.46625000 2.92375000 43.85625000
201 1 20.46625000 8.77125000 2.92375000
202 1 20.46625000 8.77125000 8.77125000
203 1 20.46625000 8.77125000 14.61875000
204 1 20.46625000 8.77125000 20.46625000
205 1 20.46625000 8.77125000 26.31375000
206 1 20.46625000 8.77125000 32.16125000
207 1 20.46625000 8.77125000 38.00875000
208 1 20.46625000 8.77125000 43.85625000
209 1 20.46625000 14.61875000 2.92375000
210 1 20.46625000 14.61875000 8.77125000
211 1 20.46625000 14.61875000 14.61875000
212 1 20.46625000 14.61875000 20.46625000
213 1 20.46625000 14.61875000 26.31375000
214 1 20.46625000 14.61875000 32.16125000
215 1 20.46625000 14.61875000 38.00875000
216 1 20.46625000 14.61875000 43.85625000
217 1 20.46625000 20.46625000 2.92375000
218 1 20.46625000 20.46625000 8.77125000
219 1 20.46625000 20.46625000 14.61875000
220 1 20.46625000 20.46625000 20.46625000
221 1 20.46625000 20.46625000 26.31375000
222 1 20.46625000 20.46625000 32.16125000
223 1 20.46625000 20.46625000 38.00875000
224 1 20.46625000 20.46625000 43.85625000
225 1 20.46625000 26.31375000 2.92375000
226 1 20.46625000 26.31375000 8.77125000
227 1 20.46625000 26.31375000 14.61875000
228 1 20.46625000 26.31375000 20.46625000
229 1 20.46625000 26.31375000 26.31375000
230 1 20.46625000 26.31375000 32.16125000
231 1 20.46625000 26.31375000 38.00875000
232 1 20.46625000 26.31375000 43.85625000
233 1 20.46625000 32.16125000 2.92375000
234 1 20.46625000 32.16125000 8.77125000
235 1 20.46625000 32.16125000 14.61875000
236 1 20.46625000 32.16125000 20.46625000
237 1 20.46625000 32.16125000 26.31375000
238 1 20.46625000 32.16125000 32.16125000
239 1 20.46625000 32.16125000 38.00875000
240 1 20.46625000 32.16125000 43.85625000
241 1 20.46625000 38.00875000 2.92375000
242 1 20.46625000 38.00875000 8.77125000
243 1 20.46625000 38.00875000 14.61875000
244 1 20.46625000 38.00875000 20.46625000
245 1 20.46625000 38.00875000 26.31375000
246 1 20.46625000 38.00875000 32.16125000
247 1 20.46625000 38.00875000 38.00875000
248 1 20.46625000 38.00875000 43.85625000
249 1 20.46625000 43.85625000 2.92375000
250 1 20.46625000 43.85625000 8.77125000
251 1 20.46625000 43.85625000 14.61875000
252 1 20.46625000 43.85625000 20.46625000
253 1 20.46625000 43.85625000 26.31375000
254 1 20.46625000 43.85625000 32.16125000
255 1 20.46625000 43.85625000 38.00875000
256 1 20.46625000 43.85625000 43.85625000
257 2 26.31375000 2.92375000 2.92375000
258 2 26.31375000 2.92375000 8.77125000
259 2 26.31375000 2.92375000 14.61875000
260 2 26.31375000 2.92375000 20.46625000
261 2 26.31375000 2.92375000 26.31375000
262 2 26.31375000 2.92375000 32.16125000
263 2 26.31375000 2.92375000 38.00875000
264 2 26.31375000 2.92375000 43.85625000
265 2 26.31375000 8.77125000 2.92375000
266 2 26.31375000 8.77125000 8.77125000
267 2 26.31375000 8.77125000 14.61875000
268 2 26.31375000 8.77125000 20.46625000
269 2 26.31375000 8.77125000 26.31375000
270 2 26.31375000 8.77125000 32.16125000
271 2 26.31375000 8.77125000 38.00875000
272 2 26.31375000 8.77125000 43.85625000
273 2 26.31375000 14.61875000 2.92375000
274 2 26.31375000 14.61875000 8.77125000
275 2 26.31375000 14.61875000 14.61875000
276 2 26.31375000 14.61875000 20.46625000
277 2 26.31375000 14.61875000 26.31375000
278 2 26.31375000 14.61875000 32.16125000
279 2 26.31375000 14.61875000 38.00875000
280 2 26.31375000 14.61875000 43.85625000
281 2 26.31375000 20.46625000 2.92375000
282 2 26.31375000 20.46625000 8.77125000
283 2 26.31375000 20.46625000 14.61875000
284 2 26.31375000 20.46625000 20.46625000
285 2 26.31375000 20.46625000 26.31375000
286 2 26.31375000 20.46625000 32.16125000
287 2 26.31375000 20.46625000 38.00875000
288 2 26.31375000 20.46625000 43.85625000
289 2 26.31375000 26.31375000 2.92375000
290 2 26.31375000 26.31375000 8.77125000
291 2 26.31375000 26.31375000 14.61875000
292 2 26.31375000 26.31375000 20.46625000
293 2 26.31375000 26.31375000 26.31375000
294 2 26.31375000 26.31375000 32.16125000
295 2 26.31375000 26.31375000 38.00875000
296 2 26.31375000 26.31375000 43.85625000
297 2 26.31375000 32.16125000 2.92375000
298 2 26.31375000 32.16125000 8.77125000
299 2 26.31375000 32.16125000 14.61875000
300 2 26.31375000 32.16125000 20.46625000
301 2 26.31375000 32.16125000 26.31375000
302 2 26.31375000 32.16125000 32.16125000
303 2 26.31375000 32.16125000 38.00875000
304 2 26.31375000 32.16125000 43.85625000
305 2 26.31375000 38.00875000 2.92375000
306 2 26.31375000 38.00875000 8.77125000
307 2 26.31375000 38.00875000 14.61875000
308 2 26.31375000 38.00875000 20.46625000
309 2 26.31375000 38.00875000 26.31375000
310 2 26.31375000 38.00875000 32.16125000
311 2 26.31375000 38.00875000 38.00875000
312 2 26.31375000 38.00875000 43.85625000
313 2 26.31375000 43.85625000 2.92375000
314 2 26.31375000 43.85625000 8.77125000
315 2 26.31375000 43.85625000 14.61875000
316 2 26.31375000 43.85625000 20.46625000
317 2 26.31375000 43.85625000 26.31375000
318 2 26.31375000 43.85625000 32.16125000
319 2 26.31375000 43.85625000 38.00875000
320 2 26.31375000 43.85625000 43.85625000
321 2 32.16125000 2.92375000 2.92375000
322 2 32.16125000 2.92375000 8.77125000
323 2 32.16125000 2.92375000 14.61875000
324 2 32.16125000 2.92375000 20.46625000
325 2 32.16125000 2.92375000 26.31375000
326 2 32.16125000 2.92375000 32.16125000
327 2 32.16125000 2.92375000 38.00875000
328 2 32.16125000 2.92375000 43.85625000
329 2 32.16125000 8.77125000 2.92375000
330 2 32.16125000 8.77125000 8.77125000
331 2 32.16125000 8.77125000 14.61875000
332 2 32.16125000 8.77125000 20.46625000
333 2 32.16125000 8.77125000 26.31375000
334 2 32.16125000 8.77125000 32.16125000
335 2 32.16125000 8.77125000 38.00875000
336 2 32.16125000 8.77125000 43.85625000
337 2 32.16125000 14.61875000 2.92375000
338 2 32.16125000 14.61875000 8.77125000
339 2 32.16125000 14.61875000 14.61875000
340 2 32.16125000 14.61875000 20.46625000
341 2 32.16125000 14.61875000 26.31375000
342 2 32.16125000 14.61875000 32.16125000
343 2 32.16125000 14.61875000 38.00875000
344 2 32.16125000 14.61875000 43.85625000
345 2 32.16125000 20.46625000 2.92375000
346 2 32.16125000 20.46625000 8.77125000
347 2 32.16125000 20.46625000 14.61875000
348 2 32.16125000 20.46625000 20.46625000
349 2 32.16125000 20.46625000 26.31375000
350 2 32.16125000 20.46625000 32.16125000
351 2 32.16125000 20.46625000 38.00875000
352 2 32.16125000 20.46625000 43.85625000
353 2 32.16125000 26.31375000 2.92375000
354 2 32.16125000 26.31375000 8.77125000
355 2 32.16125000 26.31375000 14.61875000
356 2 32.16125000 26.31375000 20.46625000
357 2 32.16125000 26.31375000 26.31375000
358 2 32.16125000 26.31375000 32.16125000
359 2 32.16125000 26.31375000 38.00875000
360 2 32.16125000 26.31375000 43.85625000
361 2 32.16125000 32.16125000 2.92375000
362 2 32.16125000 32.16125000 8.77125000
363 2 32.16125000 32.16125000 14.61875000
364 2 32.16125000 32.16125000 20.46625000
365 2 32.16125000 32.16125000 26.31375000
366 2 32.16125000 32.16125000 32.16125000
367 2 32.16125000 32.16125000 38.00875000
368 2 32.16125000 32.16125000 43.85625000
369 2 32.16125000 38.00875000 2.92375000
370 2 32.16125000 38.00875000 8.77125000
371 2 32.16125000 38.00875000 14.61875000
372 2 32.16125000 38.00875000 20.46625000
373 2 32.16125000 38.00875000 26.31375000
374 2 32.16125000 38.00875000 32.16125000
375 2 32.16125000 38.00875000 38.00875000
376 2 32.16125000 38.00875000 43.85625000
377 2 32.16125000 43.85625000 2.92375000
378 2 32.16125000 43.85625000 8.77125000
379 2 32.16125000 43.85625000 14.61875000
380 2 32.16125000 43.85625000 20.46625000
381 2 32.16125000 43.85625000 26.31375000
382 2 32.16125000 43.85625000 32.16125000
383 2 32.16125000 43.85625000 38.00875000
384 2 32.16125000 43.85625000 43.85625000
385 2 38.00875000 2.92375000 2.92375000
386 2 38.00875000 2.92375000 8.77125000
387 2 38.00875000 2.92375000 14.61875000
388 2 38.00875000 2.92375000 20.46625000
389 2 38.00875000 2.92375000 26.31375000
390 2 38.00875000 2.92375000 32.16125000
391 2 38.00875000 2.92375000 38.00875000
392 2 38.00875000 2.92375000 43.85625000
393 2 38.00875000 8.77125000 2.92375000
394 2 38.00875000 8.77125000 8.77125000
395 2 38.00875000 8.77125000 14.61875000
396 2 38.00875000 8.77125000 20.46625000
397 2 38.00875000 8.77125000 26.31375000
398 2 38.00875000 8.77125000 32.16125000
399 2 38.00875000 8.77125000 38.00875000
400 2 38.00875000 8.77125000 43.85625000
401 2 38.00875000 14.61875000 2.92375000
402 2 38.00875000 14.61875000 8.77125000
403 2 38.00875000 14.61875000 14.61875000
404 2 38.00875000 14.61875000 20.46625000
405 2 38.00875000 14.61875000 26.31375000
406 2 38.00875000 14.61875000 32.16125000
407 2 38.00875000 14.61875000 38.00875000
408 2 38.00875000 14.61875000 43.85625000
409 2 38.00875000 20.46625000 2.92375000
410 2 38.00875000 20.46625000 8.77125000
411 2 38.00875000 20.46625000 14.61875000
412 2 38.00875000 20.46625000 20.46625000
413 2 38.00875000 20.46625000 26.31375000
414 2 38.00875000 20.46625000 32.16125000
415 2 38.00875000 20.46625000 38.00875000
416 2 38.00875000 20.46625000 43.85625000
417 2 38.00875000 26.31375000 2.92375000
418 2 38.00875000 26.31375000 8.77125000
419 2 38.00875000 26.31375000 14.61875000
420 2 38.00875000 26.31375000 20.46625000
421 2 38.00875000 26.31375000 26.31375000
422 2 38.00875000 26.31375000 32.16125000
423 2 38.00875000 26.31375000 38.00875000
424 2 38.00875000 26.31375000 43.85625000
425 2 38.00875000 32.16125000 2.92375000
426 2 38.00875000 32.16125000 8.77125000
427 2 38.00875000 32.16125000 14.61875000
428 2 38.00875000 32.16125000 20.46625000
429 2 38.00875000 32.16125000 26.31375000
430 2 38.00875000 32.16125000 32.16125000
431 2 38.00875000 32.16125000 38.00875000
432 2 38.00875000 32.16125000 43.85625000
433 2 38.00875000 38.00875000 2.92375000
434 2 38.00875000 38.00875000 8.77125000
435 2 38.00875000 38.00875000 14.61875000
436 2 38.00875000 38.00875000 20.46625000
437 2 38.00875000 38.00875000 26.31375000
438 2 38.00875000 38.00875000 32.16125000
439 2 38.00875000 38.00875000 38.00875000
440 2 38.00875000 38.00875000 43.85625000
441 2 38.00875000 43.85625000 2.92375000
442 2 38.00875000 43.85625000 8.77125000
443 2 38.00875000 43.85625000 14.61875000
444 2 38.00875000 43.85625000 20.46625000
445 2 38.00875000 43.85625000 26.31375000
446 2 38.00875000 43.85625000 32.16125000
447 2 38.00875000 43.85625000 38.00875000
448 2 38.00875000 43.85625000 43.85625000
449 2 43.85625000 2.92375000 2.92375000
450 2 43.85625000 2.92375000 8.77125000
451 2 43.85625000 2.92375000 14.61875000
452 2 43.85625000 2.92375000 20.46625000
453 2 43.85625000 2.92375000 26.31375000
454 2 43.85625000 2.92375000 32.16125000
455 2 43.85625000 2.92375000 38.00875000
456 2 43.85625000 2.92375000 43.85625000
457 2 43.85625000 8.77125000 2.92375000
458 2 43.85625000 8.77125000 8.77125000
459 2 43.85625000 8.77125000 14.61875000
460 2 43.85625000 8.77125000 20.46625000
461 2 43.85625000 8.77125000 26.31375000
462 2 43.85625000 8.77125000 32.16125000
463 2 43.85625000 8.77125000 38.00875000
464 2 43.85625000 8.77125000 43.85625000
465 2 43.85625000 14.61875000 2.92375000
466 2 43.85625000 14.61875000 8.77125000
467 2 43.85625000 14.61875000 14.61875000
468 2 43.85625000 14.61875000 20.46625000
469 2 43.85625000 14.61875000 26.31375000
470 2 43.85625000 14.61875000 32.16125000
471 2 43.85625000 14.61875000 38.00875000
472 2 43.85625000 14.61875000 43.85625000
473 2 43.85625000 20.46625000 2.92375000
474 2 43.85625000 20.46625000 8.77125000
475 2 43.85625000 20.46625000 14.61875000
476 2 43.85625000 20.46625000 20.46625000
477 2 43.85625000 20.46625000 26.31375000
478 2 43.85625000 20.46625000 32.16125000
479 2 43.85625000 20.46625000 38.00875000
480 2 43.85625000 20.46625000 43.85625000
481 2 43.85625000 26.31375000 2.92375000
482 2 43.85625000 26.31375000 8.77125000
483 2 43.85625000 26.31375000 14.61875000
484 2 43.85625000 26.31375000 20.46625000
485 2 43.85625000 26.31375000 26.31375000
486 2 43.85625000 26.31375000 32.16125000
487 2 43.85625000 26.31375000 38.00875000
488 2 43.85625000 26.31375000 43.85625000
489 2 43.85625000 32.16125000 2.92375000
490 2 43.85625000 32.16125000 8.77125000
491 2 43.85625000 32.16125000 14.61875000
492 2 43.85625000 32.16125000 20.46625000
493 2 43.85625000 32.16125000 26.31375000
494 2 43.85625000 32.16125000 32.16125000
495 2 43.85625000 32.16125000 38.00875000
496 2 43.85625000 32.16125000 43.85625000
497 2 43.85625000 38.00875000 2.92375000
498 2 43.85625000 38.00875000 8.77125000
499 2 43.85625000 38.00875000 14.61875000
500 2 43.85625000 38.00875000 20.46625000
501 2 43.85625000 38.00875000 26.31375000
502 2 43.85625000 38.00875000 32.16125000
503 2 43.85625000 38.00875000 38.00875000
504 2 43.85625000 38.00875000 43.85625000
505 2 43.85625000 43.85625000 2.92375000
506 2 43.85625000 43.85625000 8.77125000
507 2 43.85625000 43.85625000 14.61875000
508 2 43.85625000 43.85625000 20.46625000
509 2 43.85625000 43.85625000 26.31375000
510 2 43.85625000 43.85625000 32.16125000
511 2 43.85625000 43.85625000 38.00875000
512 2 43.85625000 43.85625000 43.85625000
