LAMMPS Simulation Data
512 atoms
3 atom types

0 11.95 xlo xhi 
0 11.95 ylo yhi 
0 11.95 zlo zhi 

Masses

1 1.0
2 1.0
3 1.0

Atoms

1 1 0.74687500 0.74687500 0.74687500
2 1 0.74687500 0.74687500 2.24062500
3 1 0.74687500 0.74687500 3.73437500
4 1 0.74687500 0.74687500 5.22812500
5 1 0.74687500 0.74687500 6.72187500
6 1 0.74687500 0.74687500 8.21562500
7 1 0.74687500 0.74687500 9.70937500
8 1 0.74687500 0.74687500 11.20312500
9 1 0.74687500 2.24062500 0.74687500
10 1 0.74687500 2.24062500 2.24062500
11 1 0.74687500 2.24062500 3.73437500
12 1 0.74687500 2.24062500 5.22812500
13 1 0.74687500 2.24062500 6.72187500
14 1 0.74687500 2.24062500 8.21562500
15 1 0.74687500 2.24062500 9.70937500
16 1 0.74687500 2.24062500 11.20312500
17 1 0.74687500 3.73437500 0.74687500
18 1 0.74687500 3.73437500 2.24062500
19 1 0.74687500 3.73437500 3.73437500
20 1 0.74687500 3.73437500 5.22812500
21 1 0.74687500 3.73437500 6.72187500
22 1 0.74687500 3.73437500 8.21562500
23 1 0.74687500 3.73437500 9.70937500
24 1 0.74687500 3.73437500 11.20312500
25 1 0.74687500 5.22812500 0.74687500
26 1 0.74687500 5.22812500 2.24062500
27 1 0.74687500 5.22812500 3.73437500
28 1 0.74687500 5.22812500 5.22812500
29 1 0.74687500 5.22812500 6.72187500
30 1 0.74687500 5.22812500 8.21562500
31 1 0.74687500 5.22812500 9.70937500
32 1 0.74687500 5.22812500 11.20312500
33 1 0.74687500 6.72187500 0.74687500
34 1 0.74687500 6.72187500 2.24062500
35 1 0.74687500 6.72187500 3.73437500
36 1 0.74687500 6.72187500 5.22812500
37 1 0.74687500 6.72187500 6.72187500
38 1 0.74687500 6.72187500 8.21562500
39 1 0.74687500 6.72187500 9.70937500
40 1 0.74687500 6.72187500 11.20312500
41 1 0.74687500 8.21562500 0.74687500
42 1 0.74687500 8.21562500 2.24062500
43 1 0.74687500 8.21562500 3.73437500
44 1 0.74687500 8.21562500 5.22812500
45 1 0.74687500 8.21562500 6.72187500
46 1 0.74687500 8.21562500 8.21562500
47 1 0.74687500 8.21562500 9.70937500
48 1 0.74687500 8.21562500 11.20312500
49 1 0.74687500 9.70937500 0.74687500
50 1 0.74687500 9.70937500 2.24062500
51 1 0.74687500 9.70937500 3.73437500
52 1 0.74687500 9.70937500 5.22812500
53 1 0.74687500 9.70937500 6.72187500
54 1 0.74687500 9.70937500 8.21562500
55 1 0.74687500 9.70937500 9.70937500
56 1 0.74687500 9.70937500 11.20312500
57 1 0.74687500 11.20312500 0.74687500
58 1 0.74687500 11.20312500 2.24062500
59 1 0.74687500 11.20312500 3.73437500
60 1 0.74687500 11.20312500 5.22812500
61 1 0.74687500 11.20312500 6.72187500
62 1 0.74687500 11.20312500 8.21562500
63 1 0.74687500 11.20312500 9.70937500
64 1 0.74687500 11.20312500 11.20312500
65 1 2.24062500 0.74687500 0.74687500
66 1 2.24062500 0.74687500 2.24062500
67 1 2.24062500 0.74687500 3.73437500
68 1 2.24062500 0.74687500 5.22812500
69 1 2.24062500 0.74687500 6.72187500
70 1 2.24062500 0.74687500 8.21562500
71 1 2.24062500 0.74687500 9.70937500
72 1 2.24062500 0.74687500 11.20312500
73 1 2.24062500 2.24062500 0.74687500
74 1 2.24062500 2.24062500 2.24062500
75 1 2.24062500 2.24062500 3.73437500
76 1 2.24062500 2.24062500 5.22812500
77 1 2.24062500 2.24062500 6.72187500
78 1 2.24062500 2.24062500 8.21562500
79 1 2.24062500 2.24062500 9.70937500
80 1 2.24062500 2.24062500 11.20312500
81 1 2.24062500 3.73437500 0.74687500
82 1 2.24062500 3.73437500 2.24062500
83 1 2.24062500 3.73437500 3.73437500
84 1 2.24062500 3.73437500 5.22812500
85 1 2.24062500 3.73437500 6.72187500
86 1 2.24062500 3.73437500 8.21562500
87 1 2.24062500 3.73437500 9.70937500
88 1 2.24062500 3.73437500 11.20312500
89 1 2.24062500 5.22812500 0.74687500
90 1 2.24062500 5.22812500 2.24062500
91 1 2.24062500 5.22812500 3.73437500
92 1 2.24062500 5.22812500 5.22812500
93 1 2.24062500 5.22812500 6.72187500
94 1 2.24062500 5.22812500 8.21562500
95 1 2.24062500 5.22812500 9.70937500
96 1 2.24062500 5.22812500 11.20312500
97 1 2.24062500 6.72187500 0.74687500
98 1 2.24062500 6.72187500 2.24062500
99 1 2.24062500 6.72187500 3.73437500
100 1 2.24062500 6.72187500 5.22812500
101 1 2.24062500 6.72187500 6.72187500
102 1 2.24062500 6.72187500 8.21562500
103 1 2.24062500 6.72187500 9.70937500
104 1 2.24062500 6.72187500 11.20312500
105 1 2.24062500 8.21562500 0.74687500
106 1 2.24062500 8.21562500 2.24062500
107 1 2.24062500 8.21562500 3.73437500
108 1 2.24062500 8.21562500 5.22812500
109 1 2.24062500 8.21562500 6.72187500
110 1 2.24062500 8.21562500 8.21562500
111 1 2.24062500 8.21562500 9.70937500
112 1 2.24062500 8.21562500 11.20312500
113 1 2.24062500 9.70937500 0.74687500
114 1 2.24062500 9.70937500 2.24062500
115 1 2.24062500 9.70937500 3.73437500
116 1 2.24062500 9.70937500 5.22812500
117 1 2.24062500 9.70937500 6.72187500
118 1 2.24062500 9.70937500 8.21562500
119 1 2.24062500 9.70937500 9.70937500
120 1 2.24062500 9.70937500 11.20312500
121 1 2.24062500 11.20312500 0.74687500
122 1 2.24062500 11.20312500 2.24062500
123 1 2.24062500 11.20312500 3.73437500
124 1 2.24062500 11.20312500 5.22812500
125 1 2.24062500 11.20312500 6.72187500
126 1 2.24062500 11.20312500 8.21562500
127 1 2.24062500 11.20312500 9.70937500
128 1 2.24062500 11.20312500 11.20312500
129 1 3.73437500 0.74687500 0.74687500
130 1 3.73437500 0.74687500 2.24062500
131 1 3.73437500 0.74687500 3.73437500
132 1 3.73437500 0.74687500 5.22812500
133 1 3.73437500 0.74687500 6.72187500
134 1 3.73437500 0.74687500 8.21562500
135 1 3.73437500 0.74687500 9.70937500
136 1 3.73437500 0.74687500 11.20312500
137 1 3.73437500 2.24062500 0.74687500
138 1 3.73437500 2.24062500 2.24062500
139 1 3.73437500 2.24062500 3.73437500
140 1 3.73437500 2.24062500 5.22812500
141 1 3.73437500 2.24062500 6.72187500
142 1 3.73437500 2.24062500 8.21562500
143 1 3.73437500 2.24062500 9.70937500
144 1 3.73437500 2.24062500 11.20312500
145 1 3.73437500 3.73437500 0.74687500
146 1 3.73437500 3.73437500 2.24062500
147 1 3.73437500 3.73437500 3.73437500
148 1 3.73437500 3.73437500 5.22812500
149 1 3.73437500 3.73437500 6.72187500
150 1 3.73437500 3.73437500 8.21562500
151 1 3.73437500 3.73437500 9.70937500
152 1 3.73437500 3.73437500 11.20312500
153 1 3.73437500 5.22812500 0.74687500
154 1 3.73437500 5.22812500 2.24062500
155 1 3.73437500 5.22812500 3.73437500
156 1 3.73437500 5.22812500 5.22812500
157 1 3.73437500 5.22812500 6.72187500
158 1 3.73437500 5.22812500 8.21562500
159 1 3.73437500 5.22812500 9.70937500
160 1 3.73437500 5.22812500 11.20312500
161 1 3.73437500 6.72187500 0.74687500
162 1 3.73437500 6.72187500 2.24062500
163 1 3.73437500 6.72187500 3.73437500
164 1 3.73437500 6.72187500 5.22812500
165 1 3.73437500 6.72187500 6.72187500
166 1 3.73437500 6.72187500 8.21562500
167 1 3.73437500 6.72187500 9.70937500
168 1 3.73437500 6.72187500 11.20312500
169 1 3.73437500 8.21562500 0.74687500
170 1 3.73437500 8.21562500 2.24062500
171 1 3.73437500 8.21562500 3.73437500
172 1 3.73437500 8.21562500 5.22812500
173 1 3.73437500 8.21562500 6.72187500
174 1 3.73437500 8.21562500 8.21562500
175 1 3.73437500 8.21562500 9.70937500
176 1 3.73437500 8.21562500 11.20312500
177 1 3.73437500 9.70937500 0.74687500
178 1 3.73437500 9.70937500 2.24062500
179 1 3.73437500 9.70937500 3.73437500
180 1 3.73437500 9.70937500 5.22812500
181 1 3.73437500 9.70937500 6.72187500
182 1 3.73437500 9.70937500 8.21562500
183 1 3.73437500 9.70937500 9.70937500
184 1 3.73437500 9.70937500 11.20312500
185 1 3.73437500 11.20312500 0.74687500
186 1 3.73437500 11.20312500 2.24062500
187 1 3.73437500 11.20312500 3.73437500
188 1 3.73437500 11.20312500 5.22812500
189 1 3.73437500 11.20312500 6.72187500
190 1 3.73437500 11.20312500 8.21562500
191 1 3.73437500 11.20312500 9.70937500
192 1 3.73437500 11.20312500 11.20312500
193 1 5.22812500 0.74687500 0.74687500
194 1 5.22812500 0.74687500 2.24062500
195 1 5.22812500 0.74687500 3.73437500
196 1 5.22812500 0.74687500 5.22812500
197 1 5.22812500 0.74687500 6.72187500
198 1 5.22812500 0.74687500 8.21562500
199 1 5.22812500 0.74687500 9.70937500
200 1 5.22812500 0.74687500 11.20312500
201 1 5.22812500 2.24062500 0.74687500
202 1 5.22812500 2.24062500 2.24062500
203 1 5.22812500 2.24062500 3.73437500
204 1 5.22812500 2.24062500 5.22812500
205 1 5.22812500 2.24062500 6.72187500
206 1 5.22812500 2.24062500 8.21562500
207 1 5.22812500 2.24062500 9.70937500
208 1 5.22812500 2.24062500 11.20312500
209 1 5.22812500 3.73437500 0.74687500
210 1 5.22812500 3.73437500 2.24062500
211 1 5.22812500 3.73437500 3.73437500
212 1 5.22812500 3.73437500 5.22812500
213 1 5.22812500 3.73437500 6.72187500
214 1 5.22812500 3.73437500 8.21562500
215 1 5.22812500 3.73437500 9.70937500
216 1 5.22812500 3.73437500 11.20312500
217 1 5.22812500 5.22812500 0.74687500
218 1 5.22812500 5.22812500 2.24062500
219 1 5.22812500 5.22812500 3.73437500
220 1 5.22812500 5.22812500 5.22812500
221 1 5.22812500 5.22812500 6.72187500
222 1 5.22812500 5.22812500 8.21562500
223 1 5.22812500 5.22812500 9.70937500
224 1 5.22812500 5.22812500 11.20312500
225 1 5.22812500 6.72187500 0.74687500
226 1 5.22812500 6.72187500 2.24062500
227 1 5.22812500 6.72187500 3.73437500
228 1 5.22812500 6.72187500 5.22812500
229 1 5.22812500 6.72187500 6.72187500
230 1 5.22812500 6.72187500 8.21562500
231 1 5.22812500 6.72187500 9.70937500
232 1 5.22812500 6.72187500 11.20312500
233 1 5.22812500 8.21562500 0.74687500
234 1 5.22812500 8.21562500 2.24062500
235 1 5.22812500 8.21562500 3.73437500
236 1 5.22812500 8.21562500 5.22812500
237 1 5.22812500 8.21562500 6.72187500
238 1 5.22812500 8.21562500 8.21562500
239 1 5.22812500 8.21562500 9.70937500
240 1 5.22812500 8.21562500 11.20312500
241 1 5.22812500 9.70937500 0.74687500
242 1 5.22812500 9.70937500 2.24062500
243 1 5.22812500 9.70937500 3.73437500
244 1 5.22812500 9.70937500 5.22812500
245 1 5.22812500 9.70937500 6.72187500
246 1 5.22812500 9.70937500 8.21562500
247 1 5.22812500 9.70937500 9.70937500
248 1 5.22812500 9.70937500 11.20312500
249 1 5.22812500 11.20312500 0.74687500
250 1 5.22812500 11.20312500 2.24062500
251 1 5.22812500 11.20312500 3.73437500
252 1 5.22812500 11.20312500 5.22812500
253 1 5.22812500 11.20312500 6.72187500
254 1 5.22812500 11.20312500 8.21562500
255 1 5.22812500 11.20312500 9.70937500
256 1 5.22812500 11.20312500 11.20312500
257 1 6.72187500 0.74687500 0.74687500
258 1 6.72187500 0.74687500 2.24062500
259 1 6.72187500 0.74687500 3.73437500
260 1 6.72187500 0.74687500 5.22812500
261 1 6.72187500 0.74687500 6.72187500
262 1 6.72187500 0.74687500 8.21562500
263 1 6.72187500 0.74687500 9.70937500
264 1 6.72187500 0.74687500 11.20312500
265 1 6.72187500 2.24062500 0.74687500
266 1 6.72187500 2.24062500 2.24062500
267 1 6.72187500 2.24062500 3.73437500
268 1 6.72187500 2.24062500 5.22812500
269 1 6.72187500 2.24062500 6.72187500
270 1 6.72187500 2.24062500 8.21562500
271 1 6.72187500 2.24062500 9.70937500
272 1 6.72187500 2.24062500 11.20312500
273 1 6.72187500 3.73437500 0.74687500
274 1 6.72187500 3.73437500 2.24062500
275 1 6.72187500 3.73437500 3.73437500
276 1 6.72187500 3.73437500 5.22812500
277 1 6.72187500 3.73437500 6.72187500
278 1 6.72187500 3.73437500 8.21562500
279 1 6.72187500 3.73437500 9.70937500
280 1 6.72187500 3.73437500 11.20312500
281 1 6.72187500 5.22812500 0.74687500
282 1 6.72187500 5.22812500 2.24062500
283 1 6.72187500 5.22812500 3.73437500
284 1 6.72187500 5.22812500 5.22812500
285 1 6.72187500 5.22812500 6.72187500
286 1 6.72187500 5.22812500 8.21562500
287 1 6.72187500 5.22812500 9.70937500
288 1 6.72187500 5.22812500 11.20312500
289 1 6.72187500 6.72187500 0.74687500
290 1 6.72187500 6.72187500 2.24062500
291 1 6.72187500 6.72187500 3.73437500
292 1 6.72187500 6.72187500 5.22812500
293 1 6.72187500 6.72187500 6.72187500
294 1 6.72187500 6.72187500 8.21562500
295 1 6.72187500 6.72187500 9.70937500
296 1 6.72187500 6.72187500 11.20312500
297 1 6.72187500 8.21562500 0.74687500
298 1 6.72187500 8.21562500 2.24062500
299 1 6.72187500 8.21562500 3.73437500
300 1 6.72187500 8.21562500 5.22812500
301 1 6.72187500 8.21562500 6.72187500
302 1 6.72187500 8.21562500 8.21562500
303 1 6.72187500 8.21562500 9.70937500
304 1 6.72187500 8.21562500 11.20312500
305 1 6.72187500 9.70937500 0.74687500
306 1 6.72187500 9.70937500 2.24062500
307 1 6.72187500 9.70937500 3.73437500
308 1 6.72187500 9.70937500 5.22812500
309 1 6.72187500 9.70937500 6.72187500
310 1 6.72187500 9.70937500 8.21562500
311 1 6.72187500 9.70937500 9.70937500
312 1 6.72187500 9.70937500 11.20312500
313 1 6.72187500 11.20312500 0.74687500
314 1 6.72187500 11.20312500 2.24062500
315 1 6.72187500 11.20312500 3.73437500
316 1 6.72187500 11.20312500 5.22812500
317 1 6.72187500 11.20312500 6.72187500
318 1 6.72187500 11.20312500 8.21562500
319 1 6.72187500 11.20312500 9.70937500
320 1 6.72187500 11.20312500 11.20312500
321 1 8.21562500 0.74687500 0.74687500
322 1 8.21562500 0.74687500 2.24062500
323 1 8.21562500 0.74687500 3.73437500
324 1 8.21562500 0.74687500 5.22812500
325 1 8.21562500 0.74687500 6.72187500
326 1 8.21562500 0.74687500 8.21562500
327 1 8.21562500 0.74687500 9.70937500
328 1 8.21562500 0.74687500 11.20312500
329 1 8.21562500 2.24062500 0.74687500
330 1 8.21562500 2.24062500 2.24062500
331 1 8.21562500 2.24062500 3.73437500
332 1 8.21562500 2.24062500 5.22812500
333 1 8.21562500 2.24062500 6.72187500
334 1 8.21562500 2.24062500 8.21562500
335 1 8.21562500 2.24062500 9.70937500
336 1 8.21562500 2.24062500 11.20312500
337 1 8.21562500 3.73437500 0.74687500
338 1 8.21562500 3.73437500 2.24062500
339 1 8.21562500 3.73437500 3.73437500
340 1 8.21562500 3.73437500 5.22812500
341 1 8.21562500 3.73437500 6.72187500
342 1 8.21562500 3.73437500 8.21562500
343 1 8.21562500 3.73437500 9.70937500
344 1 8.21562500 3.73437500 11.20312500
345 1 8.21562500 5.22812500 0.74687500
346 1 8.21562500 5.22812500 2.24062500
347 1 8.21562500 5.22812500 3.73437500
348 1 8.21562500 5.22812500 5.22812500
349 1 8.21562500 5.22812500 6.72187500
350 1 8.21562500 5.22812500 8.21562500
351 1 8.21562500 5.22812500 9.70937500
352 1 8.21562500 5.22812500 11.20312500
353 1 8.21562500 6.72187500 0.74687500
354 1 8.21562500 6.72187500 2.24062500
355 1 8.21562500 6.72187500 3.73437500
356 1 8.21562500 6.72187500 5.22812500
357 1 8.21562500 6.72187500 6.72187500
358 1 8.21562500 6.72187500 8.21562500
359 1 8.21562500 6.72187500 9.70937500
360 1 8.21562500 6.72187500 11.20312500
361 1 8.21562500 8.21562500 0.74687500
362 1 8.21562500 8.21562500 2.24062500
363 1 8.21562500 8.21562500 3.73437500
364 1 8.21562500 8.21562500 5.22812500
365 1 8.21562500 8.21562500 6.72187500
366 1 8.21562500 8.21562500 8.21562500
367 1 8.21562500 8.21562500 9.70937500
368 1 8.21562500 8.21562500 11.20312500
369 1 8.21562500 9.70937500 0.74687500
370 1 8.21562500 9.70937500 2.24062500
371 1 8.21562500 9.70937500 3.73437500
372 1 8.21562500 9.70937500 5.22812500
373 1 8.21562500 9.70937500 6.72187500
374 1 8.21562500 9.70937500 8.21562500
375 1 8.21562500 9.70937500 9.70937500
376 1 8.21562500 9.70937500 11.20312500
377 1 8.21562500 11.20312500 0.74687500
378 1 8.21562500 11.20312500 2.24062500
379 1 8.21562500 11.20312500 3.73437500
380 1 8.21562500 11.20312500 5.22812500
381 1 8.21562500 11.20312500 6.72187500
382 1 8.21562500 11.20312500 8.21562500
383 1 8.21562500 11.20312500 9.70937500
384 1 8.21562500 11.20312500 11.20312500
385 1 9.70937500 0.74687500 0.74687500
386 1 9.70937500 0.74687500 2.24062500
387 1 9.70937500 0.74687500 3.73437500
388 1 9.70937500 0.74687500 5.22812500
389 1 9.70937500 0.74687500 6.72187500
390 1 9.70937500 0.74687500 8.21562500
391 1 9.70937500 0.74687500 9.70937500
392 1 9.70937500 0.74687500 11.20312500
393 1 9.70937500 2.24062500 0.74687500
394 1 9.70937500 2.24062500 2.24062500
395 1 9.70937500 2.24062500 3.73437500
396 1 9.70937500 2.24062500 5.22812500
397 1 9.70937500 2.24062500 6.72187500
398 1 9.70937500 2.24062500 8.21562500
399 1 9.70937500 2.24062500 9.70937500
400 1 9.70937500 2.24062500 11.20312500
401 2 9.70937500 3.73437500 0.74687500
402 2 9.70937500 3.73437500 2.24062500
403 2 9.70937500 3.73437500 3.73437500
404 2 9.70937500 3.73437500 5.22812500
405 2 9.70937500 3.73437500 6.72187500
406 2 9.70937500 3.73437500 8.21562500
407 2 9.70937500 3.73437500 9.70937500
408 2 9.70937500 3.73437500 11.20312500
409 2 9.70937500 5.22812500 0.74687500
410 2 9.70937500 5.22812500 2.24062500
411 2 9.70937500 5.22812500 3.73437500
412 2 9.70937500 5.22812500 5.22812500
413 2 9.70937500 5.22812500 6.72187500
414 2 9.70937500 5.22812500 8.21562500
415 2 9.70937500 5.22812500 9.70937500
416 2 9.70937500 5.22812500 11.20312500
417 2 9.70937500 6.72187500 0.74687500
418 2 9.70937500 6.72187500 2.24062500
419 2 9.70937500 6.72187500 3.73437500
420 2 9.70937500 6.72187500 5.22812500
421 2 9.70937500 6.72187500 6.72187500
422 2 9.70937500 6.72187500 8.21562500
423 2 9.70937500 6.72187500 9.70937500
424 2 9.70937500 6.72187500 11.20312500
425 2 9.70937500 8.21562500 0.74687500
426 2 9.70937500 8.21562500 2.24062500
427 2 9.70937500 8.21562500 3.73437500
428 2 9.70937500 8.21562500 5.22812500
429 2 9.70937500 8.21562500 6.72187500
430 2 9.70937500 8.21562500 8.21562500
431 2 9.70937500 8.21562500 9.70937500
432 2 9.70937500 8.21562500 11.20312500
433 2 9.70937500 9.70937500 0.74687500
434 2 9.70937500 9.70937500 2.24062500
435 2 9.70937500 9.70937500 3.73437500
436 2 9.70937500 9.70937500 5.22812500
437 2 9.70937500 9.70937500 6.72187500
438 2 9.70937500 9.70937500 8.21562500
439 2 9.70937500 9.70937500 9.70937500
440 2 9.70937500 9.70937500 11.20312500
441 2 9.70937500 11.20312500 0.74687500
442 2 9.70937500 11.20312500 2.24062500
443 2 9.70937500 11.20312500 3.73437500
444 2 9.70937500 11.20312500 5.22812500
445 2 9.70937500 11.20312500 6.72187500
446 2 9.70937500 11.20312500 8.21562500
447 2 9.70937500 11.20312500 9.70937500
448 2 9.70937500 11.20312500 11.20312500
449 2 11.20312500 0.74687500 0.74687500
450 2 11.20312500 0.74687500 2.24062500
451 2 11.20312500 0.74687500 3.73437500
452 2 11.20312500 0.74687500 5.22812500
453 2 11.20312500 0.74687500 6.72187500
454 2 11.20312500 0.74687500 8.21562500
455 2 11.20312500 0.74687500 9.70937500
456 2 11.20312500 0.74687500 11.20312500
457 3 11.20312500 2.24062500 0.74687500
458 3 11.20312500 2.24062500 2.24062500
459 3 11.20312500 2.24062500 3.73437500
460 3 11.20312500 2.24062500 5.22812500
461 3 11.20312500 2.24062500 6.72187500
462 3 11.20312500 2.24062500 8.21562500
463 3 11.20312500 2.24062500 9.70937500
464 3 11.20312500 2.24062500 11.20312500
465 3 11.20312500 3.73437500 0.74687500
466 3 11.20312500 3.73437500 2.24062500
467 3 11.20312500 3.73437500 3.73437500
468 3 11.20312500 3.73437500 5.22812500
469 3 11.20312500 3.73437500 6.72187500
470 3 11.20312500 3.73437500 8.21562500
471 3 11.20312500 3.73437500 9.70937500
472 3 11.20312500 3.73437500 11.20312500
473 3 11.20312500 5.22812500 0.74687500
474 3 11.20312500 5.22812500 2.24062500
475 3 11.20312500 5.22812500 3.73437500
476 3 11.20312500 5.22812500 5.22812500
477 3 11.20312500 5.22812500 6.72187500
478 3 11.20312500 5.22812500 8.21562500
479 3 11.20312500 5.22812500 9.70937500
480 3 11.20312500 5.22812500 11.20312500
481 3 11.20312500 6.72187500 0.74687500
482 3 11.20312500 6.72187500 2.24062500
483 3 11.20312500 6.72187500 3.73437500
484 3 11.20312500 6.72187500 5.22812500
485 3 11.20312500 6.72187500 6.72187500
486 3 11.20312500 6.72187500 8.21562500
487 3 11.20312500 6.72187500 9.70937500
488 3 11.20312500 6.72187500 11.20312500
489 3 11.20312500 8.21562500 0.74687500
490 3 11.20312500 8.21562500 2.24062500
491 3 11.20312500 8.21562500 3.73437500
492 3 11.20312500 8.21562500 5.22812500
493 3 11.20312500 8.21562500 6.72187500
494 3 11.20312500 8.21562500 8.21562500
495 3 11.20312500 8.21562500 9.70937500
496 3 11.20312500 8.21562500 11.20312500
497 3 11.20312500 9.70937500 0.74687500
498 3 11.20312500 9.70937500 2.24062500
499 3 11.20312500 9.70937500 3.73437500
500 3 11.20312500 9.70937500 5.22812500
501 3 11.20312500 9.70937500 6.72187500
502 3 11.20312500 9.70937500 8.21562500
503 3 11.20312500 9.70937500 9.70937500
504 3 11.20312500 9.70937500 11.20312500
505 3 11.20312500 11.20312500 0.74687500
506 3 11.20312500 11.20312500 2.24062500
507 3 11.20312500 11.20312500 3.73437500
508 3 11.20312500 11.20312500 5.22812500
509 3 11.20312500 11.20312500 6.72187500
510 3 11.20312500 11.20312500 8.21562500
511 3 11.20312500 11.20312500 9.70937500
512 3 11.20312500 11.20312500 11.20312500
