LAMMPS Simulation Data
729 atoms
3 atom types

0 12.21 xlo xhi 
0 12.21 ylo yhi 
0 12.21 zlo zhi 

Masses

1 1.0
2 1.0
3 1.0

Atoms

1 1 0.67833333 0.67833333 0.67833333
2 1 0.67833333 0.67833333 2.03500000
3 1 0.67833333 0.67833333 3.39166667
4 1 0.67833333 0.67833333 4.74833333
5 1 0.67833333 0.67833333 6.10500000
6 1 0.67833333 0.67833333 7.46166667
7 1 0.67833333 0.67833333 8.81833333
8 1 0.67833333 0.67833333 10.17500000
9 1 0.67833333 0.67833333 11.53166667
10 1 0.67833333 2.03500000 0.67833333
11 1 0.67833333 2.03500000 2.03500000
12 1 0.67833333 2.03500000 3.39166667
13 1 0.67833333 2.03500000 4.74833333
14 1 0.67833333 2.03500000 6.10500000
15 1 0.67833333 2.03500000 7.46166667
16 1 0.67833333 2.03500000 8.81833333
17 1 0.67833333 2.03500000 10.17500000
18 1 0.67833333 2.03500000 11.53166667
19 1 0.67833333 3.39166667 0.67833333
20 1 0.67833333 3.39166667 2.03500000
21 1 0.67833333 3.39166667 3.39166667
22 1 0.67833333 3.39166667 4.74833333
23 1 0.67833333 3.39166667 6.10500000
24 1 0.67833333 3.39166667 7.46166667
25 1 0.67833333 3.39166667 8.81833333
26 1 0.67833333 3.39166667 10.17500000
27 1 0.67833333 3.39166667 11.53166667
28 1 0.67833333 4.74833333 0.67833333
29 1 0.67833333 4.74833333 2.03500000
30 1 0.67833333 4.74833333 3.39166667
31 1 0.67833333 4.74833333 4.74833333
32 1 0.67833333 4.74833333 6.10500000
33 1 0.67833333 4.74833333 7.46166667
34 1 0.67833333 4.74833333 8.81833333
35 1 0.67833333 4.74833333 10.17500000
36 1 0.67833333 4.74833333 11.53166667
37 1 0.67833333 6.10500000 0.67833333
38 1 0.67833333 6.10500000 2.03500000
39 1 0.67833333 6.10500000 3.39166667
40 1 0.67833333 6.10500000 4.74833333
41 1 0.67833333 6.10500000 6.10500000
42 1 0.67833333 6.10500000 7.46166667
43 1 0.67833333 6.10500000 8.81833333
44 1 0.67833333 6.10500000 10.17500000
45 1 0.67833333 6.10500000 11.53166667
46 1 0.67833333 7.46166667 0.67833333
47 1 0.67833333 7.46166667 2.03500000
48 1 0.67833333 7.46166667 3.39166667
49 1 0.67833333 7.46166667 4.74833333
50 1 0.67833333 7.46166667 6.10500000
51 1 0.67833333 7.46166667 7.46166667
52 1 0.67833333 7.46166667 8.81833333
53 1 0.67833333 7.46166667 10.17500000
54 1 0.67833333 7.46166667 11.53166667
55 1 0.67833333 8.81833333 0.67833333
56 1 0.67833333 8.81833333 2.03500000
57 1 0.67833333 8.81833333 3.39166667
58 1 0.67833333 8.81833333 4.74833333
59 1 0.67833333 8.81833333 6.10500000
60 1 0.67833333 8.81833333 7.46166667
61 1 0.67833333 8.81833333 8.81833333
62 1 0.67833333 8.81833333 10.17500000
63 1 0.67833333 8.81833333 11.53166667
64 1 0.67833333 10.17500000 0.67833333
65 1 0.67833333 10.17500000 2.03500000
66 1 0.67833333 10.17500000 3.39166667
67 1 0.67833333 10.17500000 4.74833333
68 1 0.67833333 10.17500000 6.10500000
69 1 0.67833333 10.17500000 7.46166667
70 1 0.67833333 10.17500000 8.81833333
71 1 0.67833333 10.17500000 10.17500000
72 1 0.67833333 10.17500000 11.53166667
73 1 0.67833333 11.53166667 0.67833333
74 1 0.67833333 11.53166667 2.03500000
75 1 0.67833333 11.53166667 3.39166667
76 1 0.67833333 11.53166667 4.74833333
77 1 0.67833333 11.53166667 6.10500000
78 1 0.67833333 11.53166667 7.46166667
79 1 0.67833333 11.53166667 8.81833333
80 1 0.67833333 11.53166667 10.17500000
81 1 0.67833333 11.53166667 11.53166667
82 1 2.03500000 0.67833333 0.67833333
83 1 2.03500000 0.67833333 2.03500000
84 1 2.03500000 0.67833333 3.39166667
85 1 2.03500000 0.67833333 4.74833333
86 1 2.03500000 0.67833333 6.10500000
87 1 2.03500000 0.67833333 7.46166667
88 1 2.03500000 0.67833333 8.81833333
89 1 2.03500000 0.67833333 10.17500000
90 1 2.03500000 0.67833333 11.53166667
91 1 2.03500000 2.03500000 0.67833333
92 1 2.03500000 2.03500000 2.03500000
93 1 2.03500000 2.03500000 3.39166667
94 1 2.03500000 2.03500000 4.74833333
95 1 2.03500000 2.03500000 6.10500000
96 1 2.03500000 2.03500000 7.46166667
97 1 2.03500000 2.03500000 8.81833333
98 1 2.03500000 2.03500000 10.17500000
99 1 2.03500000 2.03500000 11.53166667
100 1 2.03500000 3.39166667 0.67833333
101 1 2.03500000 3.39166667 2.03500000
102 1 2.03500000 3.39166667 3.39166667
103 1 2.03500000 3.39166667 4.74833333
104 1 2.03500000 3.39166667 6.10500000
105 1 2.03500000 3.39166667 7.46166667
106 1 2.03500000 3.39166667 8.81833333
107 1 2.03500000 3.39166667 10.17500000
108 1 2.03500000 3.39166667 11.53166667
109 1 2.03500000 4.74833333 0.67833333
110 1 2.03500000 4.74833333 2.03500000
111 1 2.03500000 4.74833333 3.39166667
112 1 2.03500000 4.74833333 4.74833333
113 1 2.03500000 4.74833333 6.10500000
114 1 2.03500000 4.74833333 7.46166667
115 1 2.03500000 4.74833333 8.81833333
116 1 2.03500000 4.74833333 10.17500000
117 1 2.03500000 4.74833333 11.53166667
118 1 2.03500000 6.10500000 0.67833333
119 1 2.03500000 6.10500000 2.03500000
120 1 2.03500000 6.10500000 3.39166667
121 1 2.03500000 6.10500000 4.74833333
122 1 2.03500000 6.10500000 6.10500000
123 1 2.03500000 6.10500000 7.46166667
124 1 2.03500000 6.10500000 8.81833333
125 1 2.03500000 6.10500000 10.17500000
126 1 2.03500000 6.10500000 11.53166667
127 1 2.03500000 7.46166667 0.67833333
128 1 2.03500000 7.46166667 2.03500000
129 1 2.03500000 7.46166667 3.39166667
130 1 2.03500000 7.46166667 4.74833333
131 1 2.03500000 7.46166667 6.10500000
132 1 2.03500000 7.46166667 7.46166667
133 1 2.03500000 7.46166667 8.81833333
134 1 2.03500000 7.46166667 10.17500000
135 1 2.03500000 7.46166667 11.53166667
136 1 2.03500000 8.81833333 0.67833333
137 1 2.03500000 8.81833333 2.03500000
138 1 2.03500000 8.81833333 3.39166667
139 1 2.03500000 8.81833333 4.74833333
140 1 2.03500000 8.81833333 6.10500000
141 1 2.03500000 8.81833333 7.46166667
142 1 2.03500000 8.81833333 8.81833333
143 1 2.03500000 8.81833333 10.17500000
144 1 2.03500000 8.81833333 11.53166667
145 1 2.03500000 10.17500000 0.67833333
146 1 2.03500000 10.17500000 2.03500000
147 1 2.03500000 10.17500000 3.39166667
148 1 2.03500000 10.17500000 4.74833333
149 1 2.03500000 10.17500000 6.10500000
150 1 2.03500000 10.17500000 7.46166667
151 1 2.03500000 10.17500000 8.81833333
152 1 2.03500000 10.17500000 10.17500000
153 1 2.03500000 10.17500000 11.53166667
154 1 2.03500000 11.53166667 0.67833333
155 1 2.03500000 11.53166667 2.03500000
156 1 2.03500000 11.53166667 3.39166667
157 1 2.03500000 11.53166667 4.74833333
158 1 2.03500000 11.53166667 6.10500000
159 1 2.03500000 11.53166667 7.46166667
160 1 2.03500000 11.53166667 8.81833333
161 1 2.03500000 11.53166667 10.17500000
162 1 2.03500000 11.53166667 11.53166667
163 1 3.39166667 0.67833333 0.67833333
164 1 3.39166667 0.67833333 2.03500000
165 1 3.39166667 0.67833333 3.39166667
166 1 3.39166667 0.67833333 4.74833333
167 1 3.39166667 0.67833333 6.10500000
168 1 3.39166667 0.67833333 7.46166667
169 1 3.39166667 0.67833333 8.81833333
170 1 3.39166667 0.67833333 10.17500000
171 1 3.39166667 0.67833333 11.53166667
172 1 3.39166667 2.03500000 0.67833333
173 1 3.39166667 2.03500000 2.03500000
174 1 3.39166667 2.03500000 3.39166667
175 1 3.39166667 2.03500000 4.74833333
176 1 3.39166667 2.03500000 6.10500000
177 1 3.39166667 2.03500000 7.46166667
178 1 3.39166667 2.03500000 8.81833333
179 1 3.39166667 2.03500000 10.17500000
180 1 3.39166667 2.03500000 11.53166667
181 1 3.39166667 3.39166667 0.67833333
182 1 3.39166667 3.39166667 2.03500000
183 1 3.39166667 3.39166667 3.39166667
184 1 3.39166667 3.39166667 4.74833333
185 1 3.39166667 3.39166667 6.10500000
186 1 3.39166667 3.39166667 7.46166667
187 1 3.39166667 3.39166667 8.81833333
188 1 3.39166667 3.39166667 10.17500000
189 1 3.39166667 3.39166667 11.53166667
190 1 3.39166667 4.74833333 0.67833333
191 1 3.39166667 4.74833333 2.03500000
192 1 3.39166667 4.74833333 3.39166667
193 1 3.39166667 4.74833333 4.74833333
194 1 3.39166667 4.74833333 6.10500000
195 1 3.39166667 4.74833333 7.46166667
196 1 3.39166667 4.74833333 8.81833333
197 1 3.39166667 4.74833333 10.17500000
198 1 3.39166667 4.74833333 11.53166667
199 1 3.39166667 6.10500000 0.67833333
200 1 3.39166667 6.10500000 2.03500000
201 1 3.39166667 6.10500000 3.39166667
202 1 3.39166667 6.10500000 4.74833333
203 1 3.39166667 6.10500000 6.10500000
204 1 3.39166667 6.10500000 7.46166667
205 1 3.39166667 6.10500000 8.81833333
206 1 3.39166667 6.10500000 10.17500000
207 1 3.39166667 6.10500000 11.53166667
208 1 3.39166667 7.46166667 0.67833333
209 1 3.39166667 7.46166667 2.03500000
210 1 3.39166667 7.46166667 3.39166667
211 1 3.39166667 7.46166667 4.74833333
212 1 3.39166667 7.46166667 6.10500000
213 1 3.39166667 7.46166667 7.46166667
214 1 3.39166667 7.46166667 8.81833333
215 1 3.39166667 7.46166667 10.17500000
216 1 3.39166667 7.46166667 11.53166667
217 1 3.39166667 8.81833333 0.67833333
218 1 3.39166667 8.81833333 2.03500000
219 1 3.39166667 8.81833333 3.39166667
220 1 3.39166667 8.81833333 4.74833333
221 1 3.39166667 8.81833333 6.10500000
222 1 3.39166667 8.81833333 7.46166667
223 1 3.39166667 8.81833333 8.81833333
224 1 3.39166667 8.81833333 10.17500000
225 1 3.39166667 8.81833333 11.53166667
226 1 3.39166667 10.17500000 0.67833333
227 1 3.39166667 10.17500000 2.03500000
228 1 3.39166667 10.17500000 3.39166667
229 1 3.39166667 10.17500000 4.74833333
230 1 3.39166667 10.17500000 6.10500000
231 1 3.39166667 10.17500000 7.46166667
232 1 3.39166667 10.17500000 8.81833333
233 1 3.39166667 10.17500000 10.17500000
234 1 3.39166667 10.17500000 11.53166667
235 1 3.39166667 11.53166667 0.67833333
236 1 3.39166667 11.53166667 2.03500000
237 1 3.39166667 11.53166667 3.39166667
238 1 3.39166667 11.53166667 4.74833333
239 1 3.39166667 11.53166667 6.10500000
240 1 3.39166667 11.53166667 7.46166667
241 1 3.39166667 11.53166667 8.81833333
242 1 3.39166667 11.53166667 10.17500000
243 1 3.39166667 11.53166667 11.53166667
244 2 4.74833333 0.67833333 0.67833333
245 2 4.74833333 0.67833333 2.03500000
246 2 4.74833333 0.67833333 3.39166667
247 2 4.74833333 0.67833333 4.74833333
248 2 4.74833333 0.67833333 6.10500000
249 2 4.74833333 0.67833333 7.46166667
250 2 4.74833333 0.67833333 8.81833333
251 2 4.74833333 0.67833333 10.17500000
252 2 4.74833333 0.67833333 11.53166667
253 2 4.74833333 2.03500000 0.67833333
254 2 4.74833333 2.03500000 2.03500000
255 2 4.74833333 2.03500000 3.39166667
256 2 4.74833333 2.03500000 4.74833333
257 2 4.74833333 2.03500000 6.10500000
258 2 4.74833333 2.03500000 7.46166667
259 2 4.74833333 2.03500000 8.81833333
260 2 4.74833333 2.03500000 10.17500000
261 2 4.74833333 2.03500000 11.53166667
262 2 4.74833333 3.39166667 0.67833333
263 2 4.74833333 3.39166667 2.03500000
264 2 4.74833333 3.39166667 3.39166667
265 2 4.74833333 3.39166667 4.74833333
266 2 4.74833333 3.39166667 6.10500000
267 2 4.74833333 3.39166667 7.46166667
268 2 4.74833333 3.39166667 8.81833333
269 2 4.74833333 3.39166667 10.17500000
270 2 4.74833333 3.39166667 11.53166667
271 2 4.74833333 4.74833333 0.67833333
272 2 4.74833333 4.74833333 2.03500000
273 2 4.74833333 4.74833333 3.39166667
274 2 4.74833333 4.74833333 4.74833333
275 2 4.74833333 4.74833333 6.10500000
276 2 4.74833333 4.74833333 7.46166667
277 2 4.74833333 4.74833333 8.81833333
278 2 4.74833333 4.74833333 10.17500000
279 2 4.74833333 4.74833333 11.53166667
280 2 4.74833333 6.10500000 0.67833333
281 2 4.74833333 6.10500000 2.03500000
282 2 4.74833333 6.10500000 3.39166667
283 2 4.74833333 6.10500000 4.74833333
284 2 4.74833333 6.10500000 6.10500000
285 2 4.74833333 6.10500000 7.46166667
286 2 4.74833333 6.10500000 8.81833333
287 2 4.74833333 6.10500000 10.17500000
288 2 4.74833333 6.10500000 11.53166667
289 2 4.74833333 7.46166667 0.67833333
290 2 4.74833333 7.46166667 2.03500000
291 2 4.74833333 7.46166667 3.39166667
292 2 4.74833333 7.46166667 4.74833333
293 2 4.74833333 7.46166667 6.10500000
294 2 4.74833333 7.46166667 7.46166667
295 2 4.74833333 7.46166667 8.81833333
296 2 4.74833333 7.46166667 10.17500000
297 2 4.74833333 7.46166667 11.53166667
298 2 4.74833333 8.81833333 0.67833333
299 2 4.74833333 8.81833333 2.03500000
300 2 4.74833333 8.81833333 3.39166667
301 2 4.74833333 8.81833333 4.74833333
302 2 4.74833333 8.81833333 6.10500000
303 2 4.74833333 8.81833333 7.46166667
304 2 4.74833333 8.81833333 8.81833333
305 2 4.74833333 8.81833333 10.17500000
306 2 4.74833333 8.81833333 11.53166667
307 2 4.74833333 10.17500000 0.67833333
308 2 4.74833333 10.17500000 2.03500000
309 2 4.74833333 10.17500000 3.39166667
310 2 4.74833333 10.17500000 4.74833333
311 2 4.74833333 10.17500000 6.10500000
312 2 4.74833333 10.17500000 7.46166667
313 2 4.74833333 10.17500000 8.81833333
314 2 4.74833333 10.17500000 10.17500000
315 2 4.74833333 10.17500000 11.53166667
316 2 4.74833333 11.53166667 0.67833333
317 2 4.74833333 11.53166667 2.03500000
318 2 4.74833333 11.53166667 3.39166667
319 2 4.74833333 11.53166667 4.74833333
320 2 4.74833333 11.53166667 6.10500000
321 2 4.74833333 11.53166667 7.46166667
322 2 4.74833333 11.53166667 8.81833333
323 2 4.74833333 11.53166667 10.17500000
324 2 4.74833333 11.53166667 11.53166667
325 2 6.10500000 0.67833333 0.67833333
326 2 6.10500000 0.67833333 2.03500000
327 2 6.10500000 0.67833333 3.39166667
328 2 6.10500000 0.67833333 4.74833333
329 2 6.10500000 0.67833333 6.10500000
330 2 6.10500000 0.67833333 7.46166667
331 2 6.10500000 0.67833333 8.81833333
332 2 6.10500000 0.67833333 10.17500000
333 2 6.10500000 0.67833333 11.53166667
334 2 6.10500000 2.03500000 0.67833333
335 2 6.10500000 2.03500000 2.03500000
336 2 6.10500000 2.03500000 3.39166667
337 2 6.10500000 2.03500000 4.74833333
338 2 6.10500000 2.03500000 6.10500000
339 2 6.10500000 2.03500000 7.46166667
340 2 6.10500000 2.03500000 8.81833333
341 2 6.10500000 2.03500000 10.17500000
342 2 6.10500000 2.03500000 11.53166667
343 2 6.10500000 3.39166667 0.67833333
344 2 6.10500000 3.39166667 2.03500000
345 2 6.10500000 3.39166667 3.39166667
346 2 6.10500000 3.39166667 4.74833333
347 2 6.10500000 3.39166667 6.10500000
348 2 6.10500000 3.39166667 7.46166667
349 2 6.10500000 3.39166667 8.81833333
350 2 6.10500000 3.39166667 10.17500000
351 2 6.10500000 3.39166667 11.53166667
352 2 6.10500000 4.74833333 0.67833333
353 2 6.10500000 4.74833333 2.03500000
354 2 6.10500000 4.74833333 3.39166667
355 2 6.10500000 4.74833333 4.74833333
356 2 6.10500000 4.74833333 6.10500000
357 2 6.10500000 4.74833333 7.46166667
358 2 6.10500000 4.74833333 8.81833333
359 2 6.10500000 4.74833333 10.17500000
360 2 6.10500000 4.74833333 11.53166667
361 2 6.10500000 6.10500000 0.67833333
362 2 6.10500000 6.10500000 2.03500000
363 2 6.10500000 6.10500000 3.39166667
364 2 6.10500000 6.10500000 4.74833333
365 2 6.10500000 6.10500000 6.10500000
366 2 6.10500000 6.10500000 7.46166667
367 2 6.10500000 6.10500000 8.81833333
368 2 6.10500000 6.10500000 10.17500000
369 2 6.10500000 6.10500000 11.53166667
370 2 6.10500000 7.46166667 0.67833333
371 2 6.10500000 7.46166667 2.03500000
372 2 6.10500000 7.46166667 3.39166667
373 2 6.10500000 7.46166667 4.74833333
374 2 6.10500000 7.46166667 6.10500000
375 2 6.10500000 7.46166667 7.46166667
376 2 6.10500000 7.46166667 8.81833333
377 2 6.10500000 7.46166667 10.17500000
378 2 6.10500000 7.46166667 11.53166667
379 2 6.10500000 8.81833333 0.67833333
380 2 6.10500000 8.81833333 2.03500000
381 2 6.10500000 8.81833333 3.39166667
382 2 6.10500000 8.81833333 4.74833333
383 2 6.10500000 8.81833333 6.10500000
384 2 6.10500000 8.81833333 7.46166667
385 2 6.10500000 8.81833333 8.81833333
386 2 6.10500000 8.81833333 10.17500000
387 2 6.10500000 8.81833333 11.53166667
388 2 6.10500000 10.17500000 0.67833333
389 2 6.10500000 10.17500000 2.03500000
390 2 6.10500000 10.17500000 3.39166667
391 2 6.10500000 10.17500000 4.74833333
392 2 6.10500000 10.17500000 6.10500000
393 2 6.10500000 10.17500000 7.46166667
394 2 6.10500000 10.17500000 8.81833333
395 2 6.10500000 10.17500000 10.17500000
396 2 6.10500000 10.17500000 11.53166667
397 2 6.10500000 11.53166667 0.67833333
398 2 6.10500000 11.53166667 2.03500000
399 2 6.10500000 11.53166667 3.39166667
400 2 6.10500000 11.53166667 4.74833333
401 2 6.10500000 11.53166667 6.10500000
402 2 6.10500000 11.53166667 7.46166667
403 2 6.10500000 11.53166667 8.81833333
404 2 6.10500000 11.53166667 10.17500000
405 2 6.10500000 11.53166667 11.53166667
406 2 7.46166667 0.67833333 0.67833333
407 2 7.46166667 0.67833333 2.03500000
408 2 7.46166667 0.67833333 3.39166667
409 2 7.46166667 0.67833333 4.74833333
410 2 7.46166667 0.67833333 6.10500000
411 2 7.46166667 0.67833333 7.46166667
412 2 7.46166667 0.67833333 8.81833333
413 2 7.46166667 0.67833333 10.17500000
414 2 7.46166667 0.67833333 11.53166667
415 2 7.46166667 2.03500000 0.67833333
416 2 7.46166667 2.03500000 2.03500000
417 2 7.46166667 2.03500000 3.39166667
418 2 7.46166667 2.03500000 4.74833333
419 2 7.46166667 2.03500000 6.10500000
420 2 7.46166667 2.03500000 7.46166667
421 2 7.46166667 2.03500000 8.81833333
422 2 7.46166667 2.03500000 10.17500000
423 2 7.46166667 2.03500000 11.53166667
424 2 7.46166667 3.39166667 0.67833333
425 2 7.46166667 3.39166667 2.03500000
426 2 7.46166667 3.39166667 3.39166667
427 2 7.46166667 3.39166667 4.74833333
428 2 7.46166667 3.39166667 6.10500000
429 2 7.46166667 3.39166667 7.46166667
430 2 7.46166667 3.39166667 8.81833333
431 2 7.46166667 3.39166667 10.17500000
432 2 7.46166667 3.39166667 11.53166667
433 2 7.46166667 4.74833333 0.67833333
434 2 7.46166667 4.74833333 2.03500000
435 2 7.46166667 4.74833333 3.39166667
436 2 7.46166667 4.74833333 4.74833333
437 2 7.46166667 4.74833333 6.10500000
438 2 7.46166667 4.74833333 7.46166667
439 2 7.46166667 4.74833333 8.81833333
440 2 7.46166667 4.74833333 10.17500000
441 2 7.46166667 4.74833333 11.53166667
442 2 7.46166667 6.10500000 0.67833333
443 2 7.46166667 6.10500000 2.03500000
444 2 7.46166667 6.10500000 3.39166667
445 2 7.46166667 6.10500000 4.74833333
446 2 7.46166667 6.10500000 6.10500000
447 2 7.46166667 6.10500000 7.46166667
448 2 7.46166667 6.10500000 8.81833333
449 2 7.46166667 6.10500000 10.17500000
450 2 7.46166667 6.10500000 11.53166667
451 2 7.46166667 7.46166667 0.67833333
452 2 7.46166667 7.46166667 2.03500000
453 2 7.46166667 7.46166667 3.39166667
454 2 7.46166667 7.46166667 4.74833333
455 2 7.46166667 7.46166667 6.10500000
456 2 7.46166667 7.46166667 7.46166667
457 2 7.46166667 7.46166667 8.81833333
458 2 7.46166667 7.46166667 10.17500000
459 2 7.46166667 7.46166667 11.53166667
460 2 7.46166667 8.81833333 0.67833333
461 2 7.46166667 8.81833333 2.03500000
462 2 7.46166667 8.81833333 3.39166667
463 2 7.46166667 8.81833333 4.74833333
464 2 7.46166667 8.81833333 6.10500000
465 2 7.46166667 8.81833333 7.46166667
466 2 7.46166667 8.81833333 8.81833333
467 2 7.46166667 8.81833333 10.17500000
468 2 7.46166667 8.81833333 11.53166667
469 2 7.46166667 10.17500000 0.67833333
470 2 7.46166667 10.17500000 2.03500000
471 2 7.46166667 10.17500000 3.39166667
472 2 7.46166667 10.17500000 4.74833333
473 2 7.46166667 10.17500000 6.10500000
474 2 7.46166667 10.17500000 7.46166667
475 2 7.46166667 10.17500000 8.81833333
476 2 7.46166667 10.17500000 10.17500000
477 2 7.46166667 10.17500000 11.53166667
478 2 7.46166667 11.53166667 0.67833333
479 2 7.46166667 11.53166667 2.03500000
480 2 7.46166667 11.53166667 3.39166667
481 2 7.46166667 11.53166667 4.74833333
482 2 7.46166667 11.53166667 6.10500000
483 2 7.46166667 11.53166667 7.46166667
484 2 7.46166667 11.53166667 8.81833333
485 2 7.46166667 11.53166667 10.17500000
486 2 7.46166667 11.53166667 11.53166667
487 3 8.81833333 0.67833333 0.67833333
488 3 8.81833333 0.67833333 2.03500000
489 3 8.81833333 0.67833333 3.39166667
490 3 8.81833333 0.67833333 4.74833333
491 3 8.81833333 0.67833333 6.10500000
492 3 8.81833333 0.67833333 7.46166667
493 3 8.81833333 0.67833333 8.81833333
494 3 8.81833333 0.67833333 10.17500000
495 3 8.81833333 0.67833333 11.53166667
496 3 8.81833333 2.03500000 0.67833333
497 3 8.81833333 2.03500000 2.03500000
498 3 8.81833333 2.03500000 3.39166667
499 3 8.81833333 2.03500000 4.74833333
500 3 8.81833333 2.03500000 6.10500000
501 3 8.81833333 2.03500000 7.46166667
502 3 8.81833333 2.03500000 8.81833333
503 3 8.81833333 2.03500000 10.17500000
504 3 8.81833333 2.03500000 11.53166667
505 3 8.81833333 3.39166667 0.67833333
506 3 8.81833333 3.39166667 2.03500000
507 3 8.81833333 3.39166667 3.39166667
508 3 8.81833333 3.39166667 4.74833333
509 3 8.81833333 3.39166667 6.10500000
510 3 8.81833333 3.39166667 7.46166667
511 3 8.81833333 3.39166667 8.81833333
512 3 8.81833333 3.39166667 10.17500000
513 3 8.81833333 3.39166667 11.53166667
514 3 8.81833333 4.74833333 0.67833333
515 3 8.81833333 4.74833333 2.03500000
516 3 8.81833333 4.74833333 3.39166667
517 3 8.81833333 4.74833333 4.74833333
518 3 8.81833333 4.74833333 6.10500000
519 3 8.81833333 4.74833333 7.46166667
520 3 8.81833333 4.74833333 8.81833333
521 3 8.81833333 4.74833333 10.17500000
522 3 8.81833333 4.74833333 11.53166667
523 3 8.81833333 6.10500000 0.67833333
524 3 8.81833333 6.10500000 2.03500000
525 3 8.81833333 6.10500000 3.39166667
526 3 8.81833333 6.10500000 4.74833333
527 3 8.81833333 6.10500000 6.10500000
528 3 8.81833333 6.10500000 7.46166667
529 3 8.81833333 6.10500000 8.81833333
530 3 8.81833333 6.10500000 10.17500000
531 3 8.81833333 6.10500000 11.53166667
532 3 8.81833333 7.46166667 0.67833333
533 3 8.81833333 7.46166667 2.03500000
534 3 8.81833333 7.46166667 3.39166667
535 3 8.81833333 7.46166667 4.74833333
536 3 8.81833333 7.46166667 6.10500000
537 3 8.81833333 7.46166667 7.46166667
538 3 8.81833333 7.46166667 8.81833333
539 3 8.81833333 7.46166667 10.17500000
540 3 8.81833333 7.46166667 11.53166667
541 3 8.81833333 8.81833333 0.67833333
542 3 8.81833333 8.81833333 2.03500000
543 3 8.81833333 8.81833333 3.39166667
544 3 8.81833333 8.81833333 4.74833333
545 3 8.81833333 8.81833333 6.10500000
546 3 8.81833333 8.81833333 7.46166667
547 3 8.81833333 8.81833333 8.81833333
548 3 8.81833333 8.81833333 10.17500000
549 3 8.81833333 8.81833333 11.53166667
550 3 8.81833333 10.17500000 0.67833333
551 3 8.81833333 10.17500000 2.03500000
552 3 8.81833333 10.17500000 3.39166667
553 3 8.81833333 10.17500000 4.74833333
554 3 8.81833333 10.17500000 6.10500000
555 3 8.81833333 10.17500000 7.46166667
556 3 8.81833333 10.17500000 8.81833333
557 3 8.81833333 10.17500000 10.17500000
558 3 8.81833333 10.17500000 11.53166667
559 3 8.81833333 11.53166667 0.67833333
560 3 8.81833333 11.53166667 2.03500000
561 3 8.81833333 11.53166667 3.39166667
562 3 8.81833333 11.53166667 4.74833333
563 3 8.81833333 11.53166667 6.10500000
564 3 8.81833333 11.53166667 7.46166667
565 3 8.81833333 11.53166667 8.81833333
566 3 8.81833333 11.53166667 10.17500000
567 3 8.81833333 11.53166667 11.53166667
568 3 10.17500000 0.67833333 0.67833333
569 3 10.17500000 0.67833333 2.03500000
570 3 10.17500000 0.67833333 3.39166667
571 3 10.17500000 0.67833333 4.74833333
572 3 10.17500000 0.67833333 6.10500000
573 3 10.17500000 0.67833333 7.46166667
574 3 10.17500000 0.67833333 8.81833333
575 3 10.17500000 0.67833333 10.17500000
576 3 10.17500000 0.67833333 11.53166667
577 3 10.17500000 2.03500000 0.67833333
578 3 10.17500000 2.03500000 2.03500000
579 3 10.17500000 2.03500000 3.39166667
580 3 10.17500000 2.03500000 4.74833333
581 3 10.17500000 2.03500000 6.10500000
582 3 10.17500000 2.03500000 7.46166667
583 3 10.17500000 2.03500000 8.81833333
584 3 10.17500000 2.03500000 10.17500000
585 3 10.17500000 2.03500000 11.53166667
586 3 10.17500000 3.39166667 0.67833333
587 3 10.17500000 3.39166667 2.03500000
588 3 10.17500000 3.39166667 3.39166667
589 3 10.17500000 3.39166667 4.74833333
590 3 10.17500000 3.39166667 6.10500000
591 3 10.17500000 3.39166667 7.46166667
592 3 10.17500000 3.39166667 8.81833333
593 3 10.17500000 3.39166667 10.17500000
594 3 10.17500000 3.39166667 11.53166667
595 3 10.17500000 4.74833333 0.67833333
596 3 10.17500000 4.74833333 2.03500000
597 3 10.17500000 4.74833333 3.39166667
598 3 10.17500000 4.74833333 4.74833333
599 3 10.17500000 4.74833333 6.10500000
600 3 10.17500000 4.74833333 7.46166667
601 3 10.17500000 4.74833333 8.81833333
602 3 10.17500000 4.74833333 10.17500000
603 3 10.17500000 4.74833333 11.53166667
604 3 10.17500000 6.10500000 0.67833333
605 3 10.17500000 6.10500000 2.03500000
606 3 10.17500000 6.10500000 3.39166667
607 3 10.17500000 6.10500000 4.74833333
608 3 10.17500000 6.10500000 6.10500000
609 3 10.17500000 6.10500000 7.46166667
610 3 10.17500000 6.10500000 8.81833333
611 3 10.17500000 6.10500000 10.17500000
612 3 10.17500000 6.10500000 11.53166667
613 3 10.17500000 7.46166667 0.67833333
614 3 10.17500000 7.46166667 2.03500000
615 3 10.17500000 7.46166667 3.39166667
616 3 10.17500000 7.46166667 4.74833333
617 3 10.17500000 7.46166667 6.10500000
618 3 10.17500000 7.46166667 7.46166667
619 3 10.17500000 7.46166667 8.81833333
620 3 10.17500000 7.46166667 10.17500000
621 3 10.17500000 7.46166667 11.53166667
622 3 10.17500000 8.81833333 0.67833333
623 3 10.17500000 8.81833333 2.03500000
624 3 10.17500000 8.81833333 3.39166667
625 3 10.17500000 8.81833333 4.74833333
626 3 10.17500000 8.81833333 6.10500000
627 3 10.17500000 8.81833333 7.46166667
628 3 10.17500000 8.81833333 8.81833333
629 3 10.17500000 8.81833333 10.17500000
630 3 10.17500000 8.81833333 11.53166667
631 3 10.17500000 10.17500000 0.67833333
632 3 10.17500000 10.17500000 2.03500000
633 3 10.17500000 10.17500000 3.39166667
634 3 10.17500000 10.17500000 4.74833333
635 3 10.17500000 10.17500000 6.10500000
636 3 10.17500000 10.17500000 7.46166667
637 3 10.17500000 10.17500000 8.81833333
638 3 10.17500000 10.17500000 10.17500000
639 3 10.17500000 10.17500000 11.53166667
640 3 10.17500000 11.53166667 0.67833333
641 3 10.17500000 11.53166667 2.03500000
642 3 10.17500000 11.53166667 3.39166667
643 3 10.17500000 11.53166667 4.74833333
644 3 10.17500000 11.53166667 6.10500000
645 3 10.17500000 11.53166667 7.46166667
646 3 10.17500000 11.53166667 8.81833333
647 3 10.17500000 11.53166667 10.17500000
648 3 10.17500000 11.53166667 11.53166667
649 3 11.53166667 0.67833333 0.67833333
650 3 11.53166667 0.67833333 2.03500000
651 3 11.53166667 0.67833333 3.39166667
652 3 11.53166667 0.67833333 4.74833333
653 3 11.53166667 0.67833333 6.10500000
654 3 11.53166667 0.67833333 7.46166667
655 3 11.53166667 0.67833333 8.81833333
656 3 11.53166667 0.67833333 10.17500000
657 3 11.53166667 0.67833333 11.53166667
658 3 11.53166667 2.03500000 0.67833333
659 3 11.53166667 2.03500000 2.03500000
660 3 11.53166667 2.03500000 3.39166667
661 3 11.53166667 2.03500000 4.74833333
662 3 11.53166667 2.03500000 6.10500000
663 3 11.53166667 2.03500000 7.46166667
664 3 11.53166667 2.03500000 8.81833333
665 3 11.53166667 2.03500000 10.17500000
666 3 11.53166667 2.03500000 11.53166667
667 3 11.53166667 3.39166667 0.67833333
668 3 11.53166667 3.39166667 2.03500000
669 3 11.53166667 3.39166667 3.39166667
670 3 11.53166667 3.39166667 4.74833333
671 3 11.53166667 3.39166667 6.10500000
672 3 11.53166667 3.39166667 7.46166667
673 3 11.53166667 3.39166667 8.81833333
674 3 11.53166667 3.39166667 10.17500000
675 3 11.53166667 3.39166667 11.53166667
676 3 11.53166667 4.74833333 0.67833333
677 3 11.53166667 4.74833333 2.03500000
678 3 11.53166667 4.74833333 3.39166667
679 3 11.53166667 4.74833333 4.74833333
680 3 11.53166667 4.74833333 6.10500000
681 3 11.53166667 4.74833333 7.46166667
682 3 11.53166667 4.74833333 8.81833333
683 3 11.53166667 4.74833333 10.17500000
684 3 11.53166667 4.74833333 11.53166667
685 3 11.53166667 6.10500000 0.67833333
686 3 11.53166667 6.10500000 2.03500000
687 3 11.53166667 6.10500000 3.39166667
688 3 11.53166667 6.10500000 4.74833333
689 3 11.53166667 6.10500000 6.10500000
690 3 11.53166667 6.10500000 7.46166667
691 3 11.53166667 6.10500000 8.81833333
692 3 11.53166667 6.10500000 10.17500000
693 3 11.53166667 6.10500000 11.53166667
694 3 11.53166667 7.46166667 0.67833333
695 3 11.53166667 7.46166667 2.03500000
696 3 11.53166667 7.46166667 3.39166667
697 3 11.53166667 7.46166667 4.74833333
698 3 11.53166667 7.46166667 6.10500000
699 3 11.53166667 7.46166667 7.46166667
700 3 11.53166667 7.46166667 8.81833333
701 3 11.53166667 7.46166667 10.17500000
702 3 11.53166667 7.46166667 11.53166667
703 3 11.53166667 8.81833333 0.67833333
704 3 11.53166667 8.81833333 2.03500000
705 3 11.53166667 8.81833333 3.39166667
706 3 11.53166667 8.81833333 4.74833333
707 3 11.53166667 8.81833333 6.10500000
708 3 11.53166667 8.81833333 7.46166667
709 3 11.53166667 8.81833333 8.81833333
710 3 11.53166667 8.81833333 10.17500000
711 3 11.53166667 8.81833333 11.53166667
712 3 11.53166667 10.17500000 0.67833333
713 3 11.53166667 10.17500000 2.03500000
714 3 11.53166667 10.17500000 3.39166667
715 3 11.53166667 10.17500000 4.74833333
716 3 11.53166667 10.17500000 6.10500000
717 3 11.53166667 10.17500000 7.46166667
718 3 11.53166667 10.17500000 8.81833333
719 3 11.53166667 10.17500000 10.17500000
720 3 11.53166667 10.17500000 11.53166667
721 3 11.53166667 11.53166667 0.67833333
722 3 11.53166667 11.53166667 2.03500000
723 3 11.53166667 11.53166667 3.39166667
724 3 11.53166667 11.53166667 4.74833333
725 3 11.53166667 11.53166667 6.10500000
726 3 11.53166667 11.53166667 7.46166667
727 3 11.53166667 11.53166667 8.81833333
728 3 11.53166667 11.53166667 10.17500000
729 3 11.53166667 11.53166667 11.53166667
