LAMMPS Simulation Data
512 atoms
2 atom types

0 55.47 xlo xhi 
0 55.47 ylo yhi 
0 55.47 zlo zhi 

Masses

1 1.0
2 1.0

Atoms

1 1 3.46687500 3.46687500 3.46687500
2 1 3.46687500 3.46687500 10.40062500
3 1 3.46687500 3.46687500 17.33437500
4 1 3.46687500 3.46687500 24.26812500
5 1 3.46687500 3.46687500 31.20187500
6 1 3.46687500 3.46687500 38.13562500
7 1 3.46687500 3.46687500 45.06937500
8 1 3.46687500 3.46687500 52.00312500
9 1 3.46687500 10.40062500 3.46687500
10 1 3.46687500 10.40062500 10.40062500
11 1 3.46687500 10.40062500 17.33437500
12 1 3.46687500 10.40062500 24.26812500
13 1 3.46687500 10.40062500 31.20187500
14 1 3.46687500 10.40062500 38.13562500
15 1 3.46687500 10.40062500 45.06937500
16 1 3.46687500 10.40062500 52.00312500
17 1 3.46687500 17.33437500 3.46687500
18 1 3.46687500 17.33437500 10.40062500
19 1 3.46687500 17.33437500 17.33437500
20 1 3.46687500 17.33437500 24.26812500
21 1 3.46687500 17.33437500 31.20187500
22 1 3.46687500 17.33437500 38.13562500
23 1 3.46687500 17.33437500 45.06937500
24 1 3.46687500 17.33437500 52.00312500
25 1 3.46687500 24.26812500 3.46687500
26 1 3.46687500 24.26812500 10.40062500
27 1 3.46687500 24.26812500 17.33437500
28 1 3.46687500 24.26812500 24.26812500
29 1 3.46687500 24.26812500 31.20187500
30 1 3.46687500 24.26812500 38.13562500
31 1 3.46687500 24.26812500 45.06937500
32 1 3.46687500 24.26812500 52.00312500
33 1 3.46687500 31.20187500 3.46687500
34 1 3.46687500 31.20187500 10.40062500
35 1 3.46687500 31.20187500 17.33437500
36 1 3.46687500 31.20187500 24.26812500
37 1 3.46687500 31.20187500 31.20187500
38 1 3.46687500 31.20187500 38.13562500
39 1 3.46687500 31.20187500 45.06937500
40 1 3.46687500 31.20187500 52.00312500
41 1 3.46687500 38.13562500 3.46687500
42 1 3.46687500 38.13562500 10.40062500
43 1 3.46687500 38.13562500 17.33437500
44 1 3.46687500 38.13562500 24.26812500
45 1 3.46687500 38.13562500 31.20187500
46 1 3.46687500 38.13562500 38.13562500
47 1 3.46687500 38.13562500 45.06937500
48 1 3.46687500 38.13562500 52.00312500
49 1 3.46687500 45.06937500 3.46687500
50 1 3.46687500 45.06937500 10.40062500
51 1 3.46687500 45.06937500 17.33437500
52 1 3.46687500 45.06937500 24.26812500
53 1 3.46687500 45.06937500 31.20187500
54 1 3.46687500 45.06937500 38.13562500
55 1 3.46687500 45.06937500 45.06937500
56 1 3.46687500 45.06937500 52.00312500
57 1 3.46687500 52.00312500 3.46687500
58 1 3.46687500 52.00312500 10.40062500
59 1 3.46687500 52.00312500 17.33437500
60 1 3.46687500 52.00312500 24.26812500
61 1 3.46687500 52.00312500 31.20187500
62 1 3.46687500 52.00312500 38.13562500
63 1 3.46687500 52.00312500 45.06937500
64 1 3.46687500 52.00312500 52.00312500
65 1 10.40062500 3.46687500 3.46687500
66 1 10.40062500 3.46687500 10.40062500
67 1 10.40062500 3.46687500 17.33437500
68 1 10.40062500 3.46687500 24.26812500
69 1 10.40062500 3.46687500 31.20187500
70 1 10.40062500 3.46687500 38.13562500
71 1 10.40062500 3.46687500 45.06937500
72 1 10.40062500 3.46687500 52.00312500
73 1 10.40062500 10.40062500 3.46687500
74 1 10.40062500 10.40062500 10.40062500
75 1 10.40062500 10.40062500 17.33437500
76 1 10.40062500 10.40062500 24.26812500
77 1 10.40062500 10.40062500 31.20187500
78 1 10.40062500 10.40062500 38.13562500
79 1 10.40062500 10.40062500 45.06937500
80 1 10.40062500 10.40062500 52.00312500
81 1 10.40062500 17.33437500 3.46687500
82 1 10.40062500 17.33437500 10.40062500
83 1 10.40062500 17.33437500 17.33437500
84 1 10.40062500 17.33437500 24.26812500
85 1 10.40062500 17.33437500 31.20187500
86 1 10.40062500 17.33437500 38.13562500
87 1 10.40062500 17.33437500 45.06937500
88 1 10.40062500 17.33437500 52.00312500
89 1 10.40062500 24.26812500 3.46687500
90 1 10.40062500 24.26812500 10.40062500
91 1 10.40062500 24.26812500 17.33437500
92 1 10.40062500 24.26812500 24.26812500
93 1 10.40062500 24.26812500 31.20187500
94 1 10.40062500 24.26812500 38.13562500
95 1 10.40062500 24.26812500 45.06937500
96 1 10.40062500 24.26812500 52.00312500
97 1 10.40062500 31.20187500 3.46687500
98 1 10.40062500 31.20187500 10.40062500
99 1 10.40062500 31.20187500 17.33437500
100 1 10.40062500 31.20187500 24.26812500
101 1 10.40062500 31.20187500 31.20187500
102 1 10.40062500 31.20187500 38.13562500
103 1 10.40062500 31.20187500 45.06937500
104 1 10.40062500 31.20187500 52.00312500
105 1 10.40062500 38.13562500 3.46687500
106 1 10.40062500 38.13562500 10.40062500
107 1 10.40062500 38.13562500 17.33437500
108 1 10.40062500 38.13562500 24.26812500
109 1 10.40062500 38.13562500 31.20187500
110 1 10.40062500 38.13562500 38.13562500
111 1 10.40062500 38.13562500 45.06937500
112 1 10.40062500 38.13562500 52.00312500
113 1 10.40062500 45.06937500 3.46687500
114 1 10.40062500 45.06937500 10.40062500
115 1 10.40062500 45.06937500 17.33437500
116 1 10.40062500 45.06937500 24.26812500
117 1 10.40062500 45.06937500 31.20187500
118 1 10.40062500 45.06937500 38.13562500
119 1 10.40062500 45.06937500 45.06937500
120 1 10.40062500 45.06937500 52.00312500
121 1 10.40062500 52.00312500 3.46687500
122 1 10.40062500 52.00312500 10.40062500
123 1 10.40062500 52.00312500 17.33437500
124 1 10.40062500 52.00312500 24.26812500
125 1 10.40062500 52.00312500 31.20187500
126 1 10.40062500 52.00312500 38.13562500
127 1 10.40062500 52.00312500 45.06937500
128 1 10.40062500 52.00312500 52.00312500
129 1 17.33437500 3.46687500 3.46687500
130 1 17.33437500 3.46687500 10.40062500
131 1 17.33437500 3.46687500 17.33437500
132 1 17.33437500 3.46687500 24.26812500
133 1 17.33437500 3.46687500 31.20187500
134 1 17.33437500 3.46687500 38.13562500
135 1 17.33437500 3.46687500 45.06937500
136 1 17.33437500 3.46687500 52.00312500
137 1 17.33437500 10.40062500 3.46687500
138 1 17.33437500 10.40062500 10.40062500
139 1 17.33437500 10.40062500 17.33437500
140 1 17.33437500 10.40062500 24.26812500
141 1 17.33437500 10.40062500 31.20187500
142 1 17.33437500 10.40062500 38.13562500
143 1 17.33437500 10.40062500 45.06937500
144 1 17.33437500 10.40062500 52.00312500
145 1 17.33437500 17.33437500 3.46687500
146 1 17.33437500 17.33437500 10.40062500
147 1 17.33437500 17.33437500 17.33437500
148 1 17.33437500 17.33437500 24.26812500
149 1 17.33437500 17.33437500 31.20187500
150 1 17.33437500 17.33437500 38.13562500
151 1 17.33437500 17.33437500 45.06937500
152 1 17.33437500 17.33437500 52.00312500
153 1 17.33437500 24.26812500 3.46687500
154 1 17.33437500 24.26812500 10.40062500
155 1 17.33437500 24.26812500 17.33437500
156 1 17.33437500 24.26812500 24.26812500
157 1 17.33437500 24.26812500 31.20187500
158 1 17.33437500 24.26812500 38.13562500
159 1 17.33437500 24.26812500 45.06937500
160 1 17.33437500 24.26812500 52.00312500
161 1 17.33437500 31.20187500 3.46687500
162 1 17.33437500 31.20187500 10.40062500
163 1 17.33437500 31.20187500 17.33437500
164 1 17.33437500 31.20187500 24.26812500
165 1 17.33437500 31.20187500 31.20187500
166 1 17.33437500 31.20187500 38.13562500
167 1 17.33437500 31.20187500 45.06937500
168 1 17.33437500 31.20187500 52.00312500
169 1 17.33437500 38.13562500 3.46687500
170 1 17.33437500 38.13562500 10.40062500
171 1 17.33437500 38.13562500 17.33437500
172 1 17.33437500 38.13562500 24.26812500
173 1 17.33437500 38.13562500 31.20187500
174 1 17.33437500 38.13562500 38.13562500
175 1 17.33437500 38.13562500 45.06937500
176 1 17.33437500 38.13562500 52.00312500
177 1 17.33437500 45.06937500 3.46687500
178 1 17.33437500 45.06937500 10.40062500
179 1 17.33437500 45.06937500 17.33437500
180 1 17.33437500 45.06937500 24.26812500
181 1 17.33437500 45.06937500 31.20187500
182 1 17.33437500 45.06937500 38.13562500
183 1 17.33437500 45.06937500 45.06937500
184 1 17.33437500 45.06937500 52.00312500
185 1 17.33437500 52.00312500 3.46687500
186 1 17.33437500 52.00312500 10.40062500
187 1 17.33437500 52.00312500 17.33437500
188 1 17.33437500 52.00312500 24.26812500
189 1 17.33437500 52.00312500 31.20187500
190 1 17.33437500 52.00312500 38.13562500
191 1 17.33437500 52.00312500 45.06937500
192 1 17.33437500 52.00312500 52.00312500
193 1 24.26812500 3.46687500 3.46687500
194 1 24.26812500 3.46687500 10.40062500
195 1 24.26812500 3.46687500 17.33437500
196 1 24.26812500 3.46687500 24.26812500
197 1 24.26812500 3.46687500 31.20187500
198 1 24.26812500 3.46687500 38.13562500
199 1 24.26812500 3.46687500 45.06937500
200 1 24.26812500 3.46687500 52.00312500
201 1 24.26812500 10.40062500 3.46687500
202 1 24.26812500 10.40062500 10.40062500
203 1 24.26812500 10.40062500 17.33437500
204 1 24.26812500 10.40062500 24.26812500
205 1 24.26812500 10.40062500 31.20187500
206 1 24.26812500 10.40062500 38.13562500
207 1 24.26812500 10.40062500 45.06937500
208 1 24.26812500 10.40062500 52.00312500
209 1 24.26812500 17.33437500 3.46687500
210 1 24.26812500 17.33437500 10.40062500
211 1 24.26812500 17.33437500 17.33437500
212 1 24.26812500 17.33437500 24.26812500
213 1 24.26812500 17.33437500 31.20187500
214 1 24.26812500 17.33437500 38.13562500
215 1 24.26812500 17.33437500 45.06937500
216 1 24.26812500 17.33437500 52.00312500
217 1 24.26812500 24.26812500 3.46687500
218 1 24.26812500 24.26812500 10.40062500
219 1 24.26812500 24.26812500 17.33437500
220 1 24.26812500 24.26812500 24.26812500
221 1 24.26812500 24.26812500 31.20187500
222 1 24.26812500 24.26812500 38.13562500
223 1 24.26812500 24.26812500 45.06937500
224 1 24.26812500 24.26812500 52.00312500
225 1 24.26812500 31.20187500 3.46687500
226 1 24.26812500 31.20187500 10.40062500
227 1 24.26812500 31.20187500 17.33437500
228 1 24.26812500 31.20187500 24.26812500
229 1 24.26812500 31.20187500 31.20187500
230 1 24.26812500 31.20187500 38.13562500
231 1 24.26812500 31.20187500 45.06937500
232 1 24.26812500 31.20187500 52.00312500
233 1 24.26812500 38.13562500 3.46687500
234 1 24.26812500 38.13562500 10.40062500
235 1 24.26812500 38.13562500 17.33437500
236 1 24.26812500 38.13562500 24.26812500
237 1 24.26812500 38.13562500 31.20187500
238 1 24.26812500 38.13562500 38.13562500
239 1 24.26812500 38.13562500 45.06937500
240 1 24.26812500 38.13562500 52.00312500
241 1 24.26812500 45.06937500 3.46687500
242 1 24.26812500 45.06937500 10.40062500
243 1 24.26812500 45.06937500 17.33437500
244 1 24.26812500 45.06937500 24.26812500
245 1 24.26812500 45.06937500 31.20187500
246 1 24.26812500 45.06937500 38.13562500
247 1 24.26812500 45.06937500 45.06937500
248 1 24.26812500 45.06937500 52.00312500
249 1 24.26812500 52.00312500 3.46687500
250 1 24.26812500 52.00312500 10.40062500
251 1 24.26812500 52.00312500 17.33437500
252 1 24.26812500 52.00312500 24.26812500
253 1 24.26812500 52.00312500 31.20187500
254 1 24.26812500 52.00312500 38.13562500
255 1 24.26812500 52.00312500 45.06937500
256 1 24.26812500 52.00312500 52.00312500
257 2 31.20187500 3.46687500 3.46687500
258 2 31.20187500 3.46687500 10.40062500
259 2 31.20187500 3.46687500 17.33437500
260 2 31.20187500 3.46687500 24.26812500
261 2 31.20187500 3.46687500 31.20187500
262 2 31.20187500 3.46687500 38.13562500
263 2 31.20187500 3.46687500 45.06937500
264 2 31.20187500 3.46687500 52.00312500
265 2 31.20187500 10.40062500 3.46687500
266 2 31.20187500 10.40062500 10.40062500
267 2 31.20187500 10.40062500 17.33437500
268 2 31.20187500 10.40062500 24.26812500
269 2 31.20187500 10.40062500 31.20187500
270 2 31.20187500 10.40062500 38.13562500
271 2 31.20187500 10.40062500 45.06937500
272 2 31.20187500 10.40062500 52.00312500
273 2 31.20187500 17.33437500 3.46687500
274 2 31.20187500 17.33437500 10.40062500
275 2 31.20187500 17.33437500 17.33437500
276 2 31.20187500 17.33437500 24.26812500
277 2 31.20187500 17.33437500 31.20187500
278 2 31.20187500 17.33437500 38.13562500
279 2 31.20187500 17.33437500 45.06937500
280 2 31.20187500 17.33437500 52.00312500
281 2 31.20187500 24.26812500 3.46687500
282 2 31.20187500 24.26812500 10.40062500
283 2 31.20187500 24.26812500 17.33437500
284 2 31.20187500 24.26812500 24.26812500
285 2 31.20187500 24.26812500 31.20187500
286 2 31.20187500 24.26812500 38.13562500
287 2 31.20187500 24.26812500 45.06937500
288 2 31.20187500 24.26812500 52.00312500
289 2 31.20187500 31.20187500 3.46687500
290 2 31.20187500 31.20187500 10.40062500
291 2 31.20187500 31.20187500 17.33437500
292 2 31.20187500 31.20187500 24.26812500
293 2 31.20187500 31.20187500 31.20187500
294 2 31.20187500 31.20187500 38.13562500
295 2 31.20187500 31.20187500 45.06937500
296 2 31.20187500 31.20187500 52.00312500
297 2 31.20187500 38.13562500 3.46687500
298 2 31.20187500 38.13562500 10.40062500
299 2 31.20187500 38.13562500 17.33437500
300 2 31.20187500 38.13562500 24.26812500
301 2 31.20187500 38.13562500 31.20187500
302 2 31.20187500 38.13562500 38.13562500
303 2 31.20187500 38.13562500 45.06937500
304 2 31.20187500 38.13562500 52.00312500
305 2 31.20187500 45.06937500 3.46687500
306 2 31.20187500 45.06937500 10.40062500
307 2 31.20187500 45.06937500 17.33437500
308 2 31.20187500 45.06937500 24.26812500
309 2 31.20187500 45.06937500 31.20187500
310 2 31.20187500 45.06937500 38.13562500
311 2 31.20187500 45.06937500 45.06937500
312 2 31.20187500 45.06937500 52.00312500
313 2 31.20187500 52.00312500 3.46687500
314 2 31.20187500 52.00312500 10.40062500
315 2 31.20187500 52.00312500 17.33437500
316 2 31.20187500 52.00312500 24.26812500
317 2 31.20187500 52.00312500 31.20187500
318 2 31.20187500 52.00312500 38.13562500
319 2 31.20187500 52.00312500 45.06937500
320 2 31.20187500 52.00312500 52.00312500
321 2 38.13562500 3.46687500 3.46687500
322 2 38.13562500 3.46687500 10.40062500
323 2 38.13562500 3.46687500 17.33437500
324 2 38.13562500 3.46687500 24.26812500
325 2 38.13562500 3.46687500 31.20187500
326 2 38.13562500 3.46687500 38.13562500
327 2 38.13562500 3.46687500 45.06937500
328 2 38.13562500 3.46687500 52.00312500
329 2 38.13562500 10.40062500 3.46687500
330 2 38.13562500 10.40062500 10.40062500
331 2 38.13562500 10.40062500 17.33437500
332 2 38.13562500 10.40062500 24.26812500
333 2 38.13562500 10.40062500 31.20187500
334 2 38.13562500 10.40062500 38.13562500
335 2 38.13562500 10.40062500 45.06937500
336 2 38.13562500 10.40062500 52.00312500
337 2 38.13562500 17.33437500 3.46687500
338 2 38.13562500 17.33437500 10.40062500
339 2 38.13562500 17.33437500 17.33437500
340 2 38.13562500 17.33437500 24.26812500
341 2 38.13562500 17.33437500 31.20187500
342 2 38.13562500 17.33437500 38.13562500
343 2 38.13562500 17.33437500 45.06937500
344 2 38.13562500 17.33437500 52.00312500
345 2 38.13562500 24.26812500 3.46687500
346 2 38.13562500 24.26812500 10.40062500
347 2 38.13562500 24.26812500 17.33437500
348 2 38.13562500 24.26812500 24.26812500
349 2 38.13562500 24.26812500 31.20187500
350 2 38.13562500 24.26812500 38.13562500
351 2 38.13562500 24.26812500 45.06937500
352 2 38.13562500 24.26812500 52.00312500
353 2 38.13562500 31.20187500 3.46687500
354 2 38.13562500 31.20187500 10.40062500
355 2 38.13562500 31.20187500 17.33437500
356 2 38.13562500 31.20187500 24.26812500
357 2 38.13562500 31.20187500 31.20187500
358 2 38.13562500 31.20187500 38.13562500
359 2 38.13562500 31.20187500 45.06937500
360 2 38.13562500 31.20187500 52.00312500
361 2 38.13562500 38.13562500 3.46687500
362 2 38.13562500 38.13562500 10.40062500
363 2 38.13562500 38.13562500 17.33437500
364 2 38.13562500 38.13562500 24.26812500
365 2 38.13562500 38.13562500 31.20187500
366 2 38.13562500 38.13562500 38.13562500
367 2 38.13562500 38.13562500 45.06937500
368 2 38.13562500 38.13562500 52.00312500
369 2 38.13562500 45.06937500 3.46687500
370 2 38.13562500 45.06937500 10.40062500
371 2 38.13562500 45.06937500 17.33437500
372 2 38.13562500 45.06937500 24.26812500
373 2 38.13562500 45.06937500 31.20187500
374 2 38.13562500 45.06937500 38.13562500
375 2 38.13562500 45.06937500 45.06937500
376 2 38.13562500 45.06937500 52.00312500
377 2 38.13562500 52.00312500 3.46687500
378 2 38.13562500 52.00312500 10.40062500
379 2 38.13562500 52.00312500 17.33437500
380 2 38.13562500 52.00312500 24.26812500
381 2 38.13562500 52.00312500 31.20187500
382 2 38.13562500 52.00312500 38.13562500
383 2 38.13562500 52.00312500 45.06937500
384 2 38.13562500 52.00312500 52.00312500
385 2 45.06937500 3.46687500 3.46687500
386 2 45.06937500 3.46687500 10.40062500
387 2 45.06937500 3.46687500 17.33437500
388 2 45.06937500 3.46687500 24.26812500
389 2 45.06937500 3.46687500 31.20187500
390 2 45.06937500 3.46687500 38.13562500
391 2 45.06937500 3.46687500 45.06937500
392 2 45.06937500 3.46687500 52.00312500
393 2 45.06937500 10.40062500 3.46687500
394 2 45.06937500 10.40062500 10.40062500
395 2 45.06937500 10.40062500 17.33437500
396 2 45.06937500 10.40062500 24.26812500
397 2 45.06937500 10.40062500 31.20187500
398 2 45.06937500 10.40062500 38.13562500
399 2 45.06937500 10.40062500 45.06937500
400 2 45.06937500 10.40062500 52.00312500
401 2 45.06937500 17.33437500 3.46687500
402 2 45.06937500 17.33437500 10.40062500
403 2 45.06937500 17.33437500 17.33437500
404 2 45.06937500 17.33437500 24.26812500
405 2 45.06937500 17.33437500 31.20187500
406 2 45.06937500 17.33437500 38.13562500
407 2 45.06937500 17.33437500 45.06937500
408 2 45.06937500 17.33437500 52.00312500
409 2 45.06937500 24.26812500 3.46687500
410 2 45.06937500 24.26812500 10.40062500
411 2 45.06937500 24.26812500 17.33437500
412 2 45.06937500 24.26812500 24.26812500
413 2 45.06937500 24.26812500 31.20187500
414 2 45.06937500 24.26812500 38.13562500
415 2 45.06937500 24.26812500 45.06937500
416 2 45.06937500 24.26812500 52.00312500
417 2 45.06937500 31.20187500 3.46687500
418 2 45.06937500 31.20187500 10.40062500
419 2 45.06937500 31.20187500 17.33437500
420 2 45.06937500 31.20187500 24.26812500
421 2 45.06937500 31.20187500 31.20187500
422 2 45.06937500 31.20187500 38.13562500
423 2 45.06937500 31.20187500 45.06937500
424 2 45.06937500 31.20187500 52.00312500
425 2 45.06937500 38.13562500 3.46687500
426 2 45.06937500 38.13562500 10.40062500
427 2 45.06937500 38.13562500 17.33437500
428 2 45.06937500 38.13562500 24.26812500
429 2 45.06937500 38.13562500 31.20187500
430 2 45.06937500 38.13562500 38.13562500
431 2 45.06937500 38.13562500 45.06937500
432 2 45.06937500 38.13562500 52.00312500
433 2 45.06937500 45.06937500 3.46687500
434 2 45.06937500 45.06937500 10.40062500
435 2 45.06937500 45.06937500 17.33437500
436 2 45.06937500 45.06937500 24.26812500
437 2 45.06937500 45.06937500 31.20187500
438 2 45.06937500 45.06937500 38.13562500
439 2 45.06937500 45.06937500 45.06937500
440 2 45.06937500 45.06937500 52.00312500
441 2 45.06937500 52.00312500 3.46687500
442 2 45.06937500 52.00312500 10.40062500
443 2 45.06937500 52.00312500 17.33437500
444 2 45.06937500 52.00312500 24.26812500
445 2 45.06937500 52.00312500 31.20187500
446 2 45.06937500 52.00312500 38.13562500
447 2 45.06937500 52.00312500 45.06937500
448 2 45.06937500 52.00312500 52.00312500
449 2 52.00312500 3.46687500 3.46687500
450 2 52.00312500 3.46687500 10.40062500
451 2 52.00312500 3.46687500 17.33437500
452 2 52.00312500 3.46687500 24.26812500
453 2 52.00312500 3.46687500 31.20187500
454 2 52.00312500 3.46687500 38.13562500
455 2 52.00312500 3.46687500 45.06937500
456 2 52.00312500 3.46687500 52.00312500
457 2 52.00312500 10.40062500 3.46687500
458 2 52.00312500 10.40062500 10.40062500
459 2 52.00312500 10.40062500 17.33437500
460 2 52.00312500 10.40062500 24.26812500
461 2 52.00312500 10.40062500 31.20187500
462 2 52.00312500 10.40062500 38.13562500
463 2 52.00312500 10.40062500 45.06937500
464 2 52.00312500 10.40062500 52.00312500
465 2 52.00312500 17.33437500 3.46687500
466 2 52.00312500 17.33437500 10.40062500
467 2 52.00312500 17.33437500 17.33437500
468 2 52.00312500 17.33437500 24.26812500
469 2 52.00312500 17.33437500 31.20187500
470 2 52.00312500 17.33437500 38.13562500
471 2 52.00312500 17.33437500 45.06937500
472 2 52.00312500 17.33437500 52.00312500
473 2 52.00312500 24.26812500 3.46687500
474 2 52.00312500 24.26812500 10.40062500
475 2 52.00312500 24.26812500 17.33437500
476 2 52.00312500 24.26812500 24.26812500
477 2 52.00312500 24.26812500 31.20187500
478 2 52.00312500 24.26812500 38.13562500
479 2 52.00312500 24.26812500 45.06937500
480 2 52.00312500 24.26812500 52.00312500
481 2 52.00312500 31.20187500 3.46687500
482 2 52.00312500 31.20187500 10.40062500
483 2 52.00312500 31.20187500 17.33437500
484 2 52.00312500 31.20187500 24.26812500
485 2 52.00312500 31.20187500 31.20187500
486 2 52.00312500 31.20187500 38.13562500
487 2 52.00312500 31.20187500 45.06937500
488 2 52.00312500 31.20187500 52.00312500
489 2 52.00312500 38.13562500 3.46687500
490 2 52.00312500 38.13562500 10.40062500
491 2 52.00312500 38.13562500 17.33437500
492 2 52.00312500 38.13562500 24.26812500
493 2 52.00312500 38.13562500 31.20187500
494 2 52.00312500 38.13562500 38.13562500
495 2 52.00312500 38.13562500 45.06937500
496 2 52.00312500 38.13562500 52.00312500
497 2 52.00312500 45.06937500 3.46687500
498 2 52.00312500 45.06937500 10.40062500
499 2 52.00312500 45.06937500 17.33437500
500 2 52.00312500 45.06937500 24.26812500
501 2 52.00312500 45.06937500 31.20187500
502 2 52.00312500 45.06937500 38.13562500
503 2 52.00312500 45.06937500 45.06937500
504 2 52.00312500 45.06937500 52.00312500
505 2 52.00312500 52.00312500 3.46687500
506 2 52.00312500 52.00312500 10.40062500
507 2 52.00312500 52.00312500 17.33437500
508 2 52.00312500 52.00312500 24.26812500
509 2 52.00312500 52.00312500 31.20187500
510 2 52.00312500 52.00312500 38.13562500
511 2 52.00312500 52.00312500 45.06937500
512 2 52.00312500 52.00312500 52.00312500
