LAMMPS Simulation Data
512 atoms
3 atom types

0 12.38 xlo xhi 
0 12.38 ylo yhi 
0 12.38 zlo zhi 

Masses

1 1.0
2 1.0
3 1.0

Atoms

1 1 0.77375000 0.77375000 0.77375000
2 1 0.77375000 0.77375000 2.32125000
3 1 0.77375000 0.77375000 3.86875000
4 1 0.77375000 0.77375000 5.41625000
5 1 0.77375000 0.77375000 6.96375000
6 1 0.77375000 0.77375000 8.51125000
7 1 0.77375000 0.77375000 10.05875000
8 1 0.77375000 0.77375000 11.60625000
9 1 0.77375000 2.32125000 0.77375000
10 1 0.77375000 2.32125000 2.32125000
11 1 0.77375000 2.32125000 3.86875000
12 1 0.77375000 2.32125000 5.41625000
13 1 0.77375000 2.32125000 6.96375000
14 1 0.77375000 2.32125000 8.51125000
15 1 0.77375000 2.32125000 10.05875000
16 1 0.77375000 2.32125000 11.60625000
17 1 0.77375000 3.86875000 0.77375000
18 1 0.77375000 3.86875000 2.32125000
19 1 0.77375000 3.86875000 3.86875000
20 1 0.77375000 3.86875000 5.41625000
21 1 0.77375000 3.86875000 6.96375000
22 1 0.77375000 3.86875000 8.51125000
23 1 0.77375000 3.86875000 10.05875000
24 1 0.77375000 3.86875000 11.60625000
25 1 0.77375000 5.41625000 0.77375000
26 1 0.77375000 5.41625000 2.32125000
27 1 0.77375000 5.41625000 3.86875000
28 1 0.77375000 5.41625000 5.41625000
29 1 0.77375000 5.41625000 6.96375000
30 1 0.77375000 5.41625000 8.51125000
31 1 0.77375000 5.41625000 10.05875000
32 1 0.77375000 5.41625000 11.60625000
33 1 0.77375000 6.96375000 0.77375000
34 1 0.77375000 6.96375000 2.32125000
35 1 0.77375000 6.96375000 3.86875000
36 1 0.77375000 6.96375000 5.41625000
37 1 0.77375000 6.96375000 6.96375000
38 1 0.77375000 6.96375000 8.51125000
39 1 0.77375000 6.96375000 10.05875000
40 1 0.77375000 6.96375000 11.60625000
41 1 0.77375000 8.51125000 0.77375000
42 1 0.77375000 8.51125000 2.32125000
43 1 0.77375000 8.51125000 3.86875000
44 1 0.77375000 8.51125000 5.41625000
45 1 0.77375000 8.51125000 6.96375000
46 1 0.77375000 8.51125000 8.51125000
47 1 0.77375000 8.51125000 10.05875000
48 1 0.77375000 8.51125000 11.60625000
49 1 0.77375000 10.05875000 0.77375000
50 1 0.77375000 10.05875000 2.32125000
51 1 0.77375000 10.05875000 3.86875000
52 1 0.77375000 10.05875000 5.41625000
53 1 0.77375000 10.05875000 6.96375000
54 1 0.77375000 10.05875000 8.51125000
55 1 0.77375000 10.05875000 10.05875000
56 1 0.77375000 10.05875000 11.60625000
57 1 0.77375000 11.60625000 0.77375000
58 1 0.77375000 11.60625000 2.32125000
59 1 0.77375000 11.60625000 3.86875000
60 1 0.77375000 11.60625000 5.41625000
61 1 0.77375000 11.60625000 6.96375000
62 1 0.77375000 11.60625000 8.51125000
63 1 0.77375000 11.60625000 10.05875000
64 1 0.77375000 11.60625000 11.60625000
65 1 2.32125000 0.77375000 0.77375000
66 1 2.32125000 0.77375000 2.32125000
67 1 2.32125000 0.77375000 3.86875000
68 1 2.32125000 0.77375000 5.41625000
69 1 2.32125000 0.77375000 6.96375000
70 1 2.32125000 0.77375000 8.51125000
71 1 2.32125000 0.77375000 10.05875000
72 1 2.32125000 0.77375000 11.60625000
73 1 2.32125000 2.32125000 0.77375000
74 1 2.32125000 2.32125000 2.32125000
75 1 2.32125000 2.32125000 3.86875000
76 1 2.32125000 2.32125000 5.41625000
77 1 2.32125000 2.32125000 6.96375000
78 1 2.32125000 2.32125000 8.51125000
79 1 2.32125000 2.32125000 10.05875000
80 1 2.32125000 2.32125000 11.60625000
81 1 2.32125000 3.86875000 0.77375000
82 1 2.32125000 3.86875000 2.32125000
83 1 2.32125000 3.86875000 3.86875000
84 1 2.32125000 3.86875000 5.41625000
85 1 2.32125000 3.86875000 6.96375000
86 1 2.32125000 3.86875000 8.51125000
87 1 2.32125000 3.86875000 10.05875000
88 1 2.32125000 3.86875000 11.60625000
89 1 2.32125000 5.41625000 0.77375000
90 1 2.32125000 5.41625000 2.32125000
91 1 2.32125000 5.41625000 3.86875000
92 1 2.32125000 5.41625000 5.41625000
93 1 2.32125000 5.41625000 6.96375000
94 1 2.32125000 5.41625000 8.51125000
95 1 2.32125000 5.41625000 10.05875000
96 1 2.32125000 5.41625000 11.60625000
97 1 2.32125000 6.96375000 0.77375000
98 1 2.32125000 6.96375000 2.32125000
99 1 2.32125000 6.96375000 3.86875000
100 1 2.32125000 6.96375000 5.41625000
101 1 2.32125000 6.96375000 6.96375000
102 1 2.32125000 6.96375000 8.51125000
103 1 2.32125000 6.96375000 10.05875000
104 1 2.32125000 6.96375000 11.60625000
105 1 2.32125000 8.51125000 0.77375000
106 1 2.32125000 8.51125000 2.32125000
107 1 2.32125000 8.51125000 3.86875000
108 1 2.32125000 8.51125000 5.41625000
109 1 2.32125000 8.51125000 6.96375000
110 1 2.32125000 8.51125000 8.51125000
111 1 2.32125000 8.51125000 10.05875000
112 1 2.32125000 8.51125000 11.60625000
113 1 2.32125000 10.05875000 0.77375000
114 1 2.32125000 10.05875000 2.32125000
115 1 2.32125000 10.05875000 3.86875000
116 1 2.32125000 10.05875000 5.41625000
117 1 2.32125000 10.05875000 6.96375000
118 1 2.32125000 10.05875000 8.51125000
119 1 2.32125000 10.05875000 10.05875000
120 1 2.32125000 10.05875000 11.60625000
121 1 2.32125000 11.60625000 0.77375000
122 1 2.32125000 11.60625000 2.32125000
123 1 2.32125000 11.60625000 3.86875000
124 1 2.32125000 11.60625000 5.41625000
125 1 2.32125000 11.60625000 6.96375000
126 1 2.32125000 11.60625000 8.51125000
127 1 2.32125000 11.60625000 10.05875000
128 1 2.32125000 11.60625000 11.60625000
129 1 3.86875000 0.77375000 0.77375000
130 1 3.86875000 0.77375000 2.32125000
131 1 3.86875000 0.77375000 3.86875000
132 1 3.86875000 0.77375000 5.41625000
133 1 3.86875000 0.77375000 6.96375000
134 1 3.86875000 0.77375000 8.51125000
135 1 3.86875000 0.77375000 10.05875000
136 1 3.86875000 0.77375000 11.60625000
137 1 3.86875000 2.32125000 0.77375000
138 1 3.86875000 2.32125000 2.32125000
139 1 3.86875000 2.32125000 3.86875000
140 1 3.86875000 2.32125000 5.41625000
141 1 3.86875000 2.32125000 6.96375000
142 1 3.86875000 2.32125000 8.51125000
143 1 3.86875000 2.32125000 10.05875000
144 1 3.86875000 2.32125000 11.60625000
145 1 3.86875000 3.86875000 0.77375000
146 1 3.86875000 3.86875000 2.32125000
147 1 3.86875000 3.86875000 3.86875000
148 1 3.86875000 3.86875000 5.41625000
149 1 3.86875000 3.86875000 6.96375000
150 1 3.86875000 3.86875000 8.51125000
151 1 3.86875000 3.86875000 10.05875000
152 1 3.86875000 3.86875000 11.60625000
153 1 3.86875000 5.41625000 0.77375000
154 1 3.86875000 5.41625000 2.32125000
155 1 3.86875000 5.41625000 3.86875000
156 1 3.86875000 5.41625000 5.41625000
157 1 3.86875000 5.41625000 6.96375000
158 1 3.86875000 5.41625000 8.51125000
159 1 3.86875000 5.41625000 10.05875000
160 1 3.86875000 5.41625000 11.60625000
161 1 3.86875000 6.96375000 0.77375000
162 1 3.86875000 6.96375000 2.32125000
163 1 3.86875000 6.96375000 3.86875000
164 1 3.86875000 6.96375000 5.41625000
165 1 3.86875000 6.96375000 6.96375000
166 1 3.86875000 6.96375000 8.51125000
167 1 3.86875000 6.96375000 10.05875000
168 1 3.86875000 6.96375000 11.60625000
169 1 3.86875000 8.51125000 0.77375000
170 1 3.86875000 8.51125000 2.32125000
171 1 3.86875000 8.51125000 3.86875000
172 1 3.86875000 8.51125000 5.41625000
173 1 3.86875000 8.51125000 6.96375000
174 1 3.86875000 8.51125000 8.51125000
175 1 3.86875000 8.51125000 10.05875000
176 1 3.86875000 8.51125000 11.60625000
177 1 3.86875000 10.05875000 0.77375000
178 1 3.86875000 10.05875000 2.32125000
179 1 3.86875000 10.05875000 3.86875000
180 1 3.86875000 10.05875000 5.41625000
181 1 3.86875000 10.05875000 6.96375000
182 1 3.86875000 10.05875000 8.51125000
183 1 3.86875000 10.05875000 10.05875000
184 1 3.86875000 10.05875000 11.60625000
185 1 3.86875000 11.60625000 0.77375000
186 1 3.86875000 11.60625000 2.32125000
187 1 3.86875000 11.60625000 3.86875000
188 1 3.86875000 11.60625000 5.41625000
189 1 3.86875000 11.60625000 6.96375000
190 1 3.86875000 11.60625000 8.51125000
191 1 3.86875000 11.60625000 10.05875000
192 1 3.86875000 11.60625000 11.60625000
193 1 5.41625000 0.77375000 0.77375000
194 1 5.41625000 0.77375000 2.32125000
195 1 5.41625000 0.77375000 3.86875000
196 1 5.41625000 0.77375000 5.41625000
197 1 5.41625000 0.77375000 6.96375000
198 1 5.41625000 0.77375000 8.51125000
199 1 5.41625000 0.77375000 10.05875000
200 1 5.41625000 0.77375000 11.60625000
201 1 5.41625000 2.32125000 0.77375000
202 1 5.41625000 2.32125000 2.32125000
203 1 5.41625000 2.32125000 3.86875000
204 1 5.41625000 2.32125000 5.41625000
205 1 5.41625000 2.32125000 6.96375000
206 1 5.41625000 2.32125000 8.51125000
207 1 5.41625000 2.32125000 10.05875000
208 1 5.41625000 2.32125000 11.60625000
209 1 5.41625000 3.86875000 0.77375000
210 1 5.41625000 3.86875000 2.32125000
211 1 5.41625000 3.86875000 3.86875000
212 1 5.41625000 3.86875000 5.41625000
213 1 5.41625000 3.86875000 6.96375000
214 1 5.41625000 3.86875000 8.51125000
215 1 5.41625000 3.86875000 10.05875000
216 1 5.41625000 3.86875000 11.60625000
217 1 5.41625000 5.41625000 0.77375000
218 1 5.41625000 5.41625000 2.32125000
219 1 5.41625000 5.41625000 3.86875000
220 1 5.41625000 5.41625000 5.41625000
221 1 5.41625000 5.41625000 6.96375000
222 1 5.41625000 5.41625000 8.51125000
223 1 5.41625000 5.41625000 10.05875000
224 1 5.41625000 5.41625000 11.60625000
225 1 5.41625000 6.96375000 0.77375000
226 1 5.41625000 6.96375000 2.32125000
227 1 5.41625000 6.96375000 3.86875000
228 1 5.41625000 6.96375000 5.41625000
229 1 5.41625000 6.96375000 6.96375000
230 1 5.41625000 6.96375000 8.51125000
231 1 5.41625000 6.96375000 10.05875000
232 1 5.41625000 6.96375000 11.60625000
233 1 5.41625000 8.51125000 0.77375000
234 1 5.41625000 8.51125000 2.32125000
235 1 5.41625000 8.51125000 3.86875000
236 1 5.41625000 8.51125000 5.41625000
237 1 5.41625000 8.51125000 6.96375000
238 1 5.41625000 8.51125000 8.51125000
239 1 5.41625000 8.51125000 10.05875000
240 1 5.41625000 8.51125000 11.60625000
241 1 5.41625000 10.05875000 0.77375000
242 1 5.41625000 10.05875000 2.32125000
243 1 5.41625000 10.05875000 3.86875000
244 1 5.41625000 10.05875000 5.41625000
245 1 5.41625000 10.05875000 6.96375000
246 1 5.41625000 10.05875000 8.51125000
247 1 5.41625000 10.05875000 10.05875000
248 1 5.41625000 10.05875000 11.60625000
249 1 5.41625000 11.60625000 0.77375000
250 1 5.41625000 11.60625000 2.32125000
251 1 5.41625000 11.60625000 3.86875000
252 1 5.41625000 11.60625000 5.41625000
253 1 5.41625000 11.60625000 6.96375000
254 1 5.41625000 11.60625000 8.51125000
255 1 5.41625000 11.60625000 10.05875000
256 1 5.41625000 11.60625000 11.60625000
257 1 6.96375000 0.77375000 0.77375000
258 1 6.96375000 0.77375000 2.32125000
259 1 6.96375000 0.77375000 3.86875000
260 1 6.96375000 0.77375000 5.41625000
261 1 6.96375000 0.77375000 6.96375000
262 1 6.96375000 0.77375000 8.51125000
263 1 6.96375000 0.77375000 10.05875000
264 1 6.96375000 0.77375000 11.60625000
265 1 6.96375000 2.32125000 0.77375000
266 1 6.96375000 2.32125000 2.32125000
267 1 6.96375000 2.32125000 3.86875000
268 1 6.96375000 2.32125000 5.41625000
269 1 6.96375000 2.32125000 6.96375000
270 1 6.96375000 2.32125000 8.51125000
271 1 6.96375000 2.32125000 10.05875000
272 1 6.96375000 2.32125000 11.60625000
273 1 6.96375000 3.86875000 0.77375000
274 1 6.96375000 3.86875000 2.32125000
275 1 6.96375000 3.86875000 3.86875000
276 1 6.96375000 3.86875000 5.41625000
277 1 6.96375000 3.86875000 6.96375000
278 1 6.96375000 3.86875000 8.51125000
279 1 6.96375000 3.86875000 10.05875000
280 1 6.96375000 3.86875000 11.60625000
281 1 6.96375000 5.41625000 0.77375000
282 1 6.96375000 5.41625000 2.32125000
283 1 6.96375000 5.41625000 3.86875000
284 1 6.96375000 5.41625000 5.41625000
285 1 6.96375000 5.41625000 6.96375000
286 1 6.96375000 5.41625000 8.51125000
287 1 6.96375000 5.41625000 10.05875000
288 1 6.96375000 5.41625000 11.60625000
289 1 6.96375000 6.96375000 0.77375000
290 1 6.96375000 6.96375000 2.32125000
291 1 6.96375000 6.96375000 3.86875000
292 1 6.96375000 6.96375000 5.41625000
293 1 6.96375000 6.96375000 6.96375000
294 1 6.96375000 6.96375000 8.51125000
295 1 6.96375000 6.96375000 10.05875000
296 1 6.96375000 6.96375000 11.60625000
297 1 6.96375000 8.51125000 0.77375000
298 1 6.96375000 8.51125000 2.32125000
299 1 6.96375000 8.51125000 3.86875000
300 1 6.96375000 8.51125000 5.41625000
301 1 6.96375000 8.51125000 6.96375000
302 1 6.96375000 8.51125000 8.51125000
303 1 6.96375000 8.51125000 10.05875000
304 1 6.96375000 8.51125000 11.60625000
305 1 6.96375000 10.05875000 0.77375000
306 1 6.96375000 10.05875000 2.32125000
307 1 6.96375000 10.05875000 3.86875000
308 1 6.96375000 10.05875000 5.41625000
309 1 6.96375000 10.05875000 6.96375000
310 1 6.96375000 10.05875000 8.51125000
311 1 6.96375000 10.05875000 10.05875000
312 1 6.96375000 10.05875000 11.60625000
313 1 6.96375000 11.60625000 0.77375000
314 1 6.96375000 11.60625000 2.32125000
315 1 6.96375000 11.60625000 3.86875000
316 1 6.96375000 11.60625000 5.41625000
317 1 6.96375000 11.60625000 6.96375000
318 1 6.96375000 11.60625000 8.51125000
319 1 6.96375000 11.60625000 10.05875000
320 1 6.96375000 11.60625000 11.60625000
321 1 8.51125000 0.77375000 0.77375000
322 1 8.51125000 0.77375000 2.32125000
323 1 8.51125000 0.77375000 3.86875000
324 1 8.51125000 0.77375000 5.41625000
325 1 8.51125000 0.77375000 6.96375000
326 1 8.51125000 0.77375000 8.51125000
327 1 8.51125000 0.77375000 10.05875000
328 1 8.51125000 0.77375000 11.60625000
329 1 8.51125000 2.32125000 0.77375000
330 1 8.51125000 2.32125000 2.32125000
331 1 8.51125000 2.32125000 3.86875000
332 1 8.51125000 2.32125000 5.41625000
333 1 8.51125000 2.32125000 6.96375000
334 1 8.51125000 2.32125000 8.51125000
335 1 8.51125000 2.32125000 10.05875000
336 1 8.51125000 2.32125000 11.60625000
337 1 8.51125000 3.86875000 0.77375000
338 1 8.51125000 3.86875000 2.32125000
339 1 8.51125000 3.86875000 3.86875000
340 1 8.51125000 3.86875000 5.41625000
341 1 8.51125000 3.86875000 6.96375000
342 1 8.51125000 3.86875000 8.51125000
343 1 8.51125000 3.86875000 10.05875000
344 1 8.51125000 3.86875000 11.60625000
345 1 8.51125000 5.41625000 0.77375000
346 1 8.51125000 5.41625000 2.32125000
347 1 8.51125000 5.41625000 3.86875000
348 1 8.51125000 5.41625000 5.41625000
349 1 8.51125000 5.41625000 6.96375000
350 1 8.51125000 5.41625000 8.51125000
351 1 8.51125000 5.41625000 10.05875000
352 1 8.51125000 5.41625000 11.60625000
353 1 8.51125000 6.96375000 0.77375000
354 1 8.51125000 6.96375000 2.32125000
355 1 8.51125000 6.96375000 3.86875000
356 1 8.51125000 6.96375000 5.41625000
357 1 8.51125000 6.96375000 6.96375000
358 1 8.51125000 6.96375000 8.51125000
359 1 8.51125000 6.96375000 10.05875000
360 1 8.51125000 6.96375000 11.60625000
361 1 8.51125000 8.51125000 0.77375000
362 1 8.51125000 8.51125000 2.32125000
363 1 8.51125000 8.51125000 3.86875000
364 1 8.51125000 8.51125000 5.41625000
365 1 8.51125000 8.51125000 6.96375000
366 1 8.51125000 8.51125000 8.51125000
367 1 8.51125000 8.51125000 10.05875000
368 1 8.51125000 8.51125000 11.60625000
369 1 8.51125000 10.05875000 0.77375000
370 1 8.51125000 10.05875000 2.32125000
371 1 8.51125000 10.05875000 3.86875000
372 1 8.51125000 10.05875000 5.41625000
373 1 8.51125000 10.05875000 6.96375000
374 1 8.51125000 10.05875000 8.51125000
375 1 8.51125000 10.05875000 10.05875000
376 1 8.51125000 10.05875000 11.60625000
377 1 8.51125000 11.60625000 0.77375000
378 1 8.51125000 11.60625000 2.32125000
379 1 8.51125000 11.60625000 3.86875000
380 1 8.51125000 11.60625000 5.41625000
381 1 8.51125000 11.60625000 6.96375000
382 1 8.51125000 11.60625000 8.51125000
383 1 8.51125000 11.60625000 10.05875000
384 1 8.51125000 11.60625000 11.60625000
385 1 10.05875000 0.77375000 0.77375000
386 1 10.05875000 0.77375000 2.32125000
387 1 10.05875000 0.77375000 3.86875000
388 1 10.05875000 0.77375000 5.41625000
389 1 10.05875000 0.77375000 6.96375000
390 1 10.05875000 0.77375000 8.51125000
391 1 10.05875000 0.77375000 10.05875000
392 1 10.05875000 0.77375000 11.60625000
393 1 10.05875000 2.32125000 0.77375000
394 1 10.05875000 2.32125000 2.32125000
395 1 10.05875000 2.32125000 3.86875000
396 1 10.05875000 2.32125000 5.41625000
397 1 10.05875000 2.32125000 6.96375000
398 1 10.05875000 2.32125000 8.51125000
399 1 10.05875000 2.32125000 10.05875000
400 1 10.05875000 2.32125000 11.60625000
401 1 10.05875000 3.86875000 0.77375000
402 1 10.05875000 3.86875000 2.32125000
403 1 10.05875000 3.86875000 3.86875000
404 1 10.05875000 3.86875000 5.41625000
405 1 10.05875000 3.86875000 6.96375000
406 1 10.05875000 3.86875000 8.51125000
407 1 10.05875000 3.86875000 10.05875000
408 1 10.05875000 3.86875000 11.60625000
409 1 10.05875000 5.41625000 0.77375000
410 1 10.05875000 5.41625000 2.32125000
411 1 10.05875000 5.41625000 3.86875000
412 1 10.05875000 5.41625000 5.41625000
413 1 10.05875000 5.41625000 6.96375000
414 1 10.05875000 5.41625000 8.51125000
415 1 10.05875000 5.41625000 10.05875000
416 1 10.05875000 5.41625000 11.60625000
417 1 10.05875000 6.96375000 0.77375000
418 1 10.05875000 6.96375000 2.32125000
419 1 10.05875000 6.96375000 3.86875000
420 1 10.05875000 6.96375000 5.41625000
421 1 10.05875000 6.96375000 6.96375000
422 1 10.05875000 6.96375000 8.51125000
423 1 10.05875000 6.96375000 10.05875000
424 1 10.05875000 6.96375000 11.60625000
425 1 10.05875000 8.51125000 0.77375000
426 1 10.05875000 8.51125000 2.32125000
427 1 10.05875000 8.51125000 3.86875000
428 1 10.05875000 8.51125000 5.41625000
429 1 10.05875000 8.51125000 6.96375000
430 1 10.05875000 8.51125000 8.51125000
431 1 10.05875000 8.51125000 10.05875000
432 1 10.05875000 8.51125000 11.60625000
433 1 10.05875000 10.05875000 0.77375000
434 1 10.05875000 10.05875000 2.32125000
435 1 10.05875000 10.05875000 3.86875000
436 1 10.05875000 10.05875000 5.41625000
437 1 10.05875000 10.05875000 6.96375000
438 1 10.05875000 10.05875000 8.51125000
439 1 10.05875000 10.05875000 10.05875000
440 1 10.05875000 10.05875000 11.60625000
441 1 10.05875000 11.60625000 0.77375000
442 1 10.05875000 11.60625000 2.32125000
443 1 10.05875000 11.60625000 3.86875000
444 1 10.05875000 11.60625000 5.41625000
445 1 10.05875000 11.60625000 6.96375000
446 1 10.05875000 11.60625000 8.51125000
447 1 10.05875000 11.60625000 10.05875000
448 1 10.05875000 11.60625000 11.60625000
449 1 11.60625000 0.77375000 0.77375000
450 1 11.60625000 0.77375000 2.32125000
451 1 11.60625000 0.77375000 3.86875000
452 1 11.60625000 0.77375000 5.41625000
453 1 11.60625000 0.77375000 6.96375000
454 1 11.60625000 0.77375000 8.51125000
455 1 11.60625000 0.77375000 10.05875000
456 1 11.60625000 0.77375000 11.60625000
457 1 11.60625000 2.32125000 0.77375000
458 1 11.60625000 2.32125000 2.32125000
459 1 11.60625000 2.32125000 3.86875000
460 1 11.60625000 2.32125000 5.41625000
461 2 11.60625000 2.32125000 6.96375000
462 2 11.60625000 2.32125000 8.51125000
463 2 11.60625000 2.32125000 10.05875000
464 2 11.60625000 2.32125000 11.60625000
465 2 11.60625000 3.86875000 0.77375000
466 2 11.60625000 3.86875000 2.32125000
467 2 11.60625000 3.86875000 3.86875000
468 2 11.60625000 3.86875000 5.41625000
469 2 11.60625000 3.86875000 6.96375000
470 2 11.60625000 3.86875000 8.51125000
471 2 11.60625000 3.86875000 10.05875000
472 2 11.60625000 3.86875000 11.60625000
473 2 11.60625000 5.41625000 0.77375000
474 2 11.60625000 5.41625000 2.32125000
475 2 11.60625000 5.41625000 3.86875000
476 2 11.60625000 5.41625000 5.41625000
477 2 11.60625000 5.41625000 6.96375000
478 2 11.60625000 5.41625000 8.51125000
479 2 11.60625000 5.41625000 10.05875000
480 2 11.60625000 5.41625000 11.60625000
481 2 11.60625000 6.96375000 0.77375000
482 2 11.60625000 6.96375000 2.32125000
483 2 11.60625000 6.96375000 3.86875000
484 2 11.60625000 6.96375000 5.41625000
485 2 11.60625000 6.96375000 6.96375000
486 2 11.60625000 6.96375000 8.51125000
487 3 11.60625000 6.96375000 10.05875000
488 3 11.60625000 6.96375000 11.60625000
489 3 11.60625000 8.51125000 0.77375000
490 3 11.60625000 8.51125000 2.32125000
491 3 11.60625000 8.51125000 3.86875000
492 3 11.60625000 8.51125000 5.41625000
493 3 11.60625000 8.51125000 6.96375000
494 3 11.60625000 8.51125000 8.51125000
495 3 11.60625000 8.51125000 10.05875000
496 3 11.60625000 8.51125000 11.60625000
497 3 11.60625000 10.05875000 0.77375000
498 3 11.60625000 10.05875000 2.32125000
499 3 11.60625000 10.05875000 3.86875000
500 3 11.60625000 10.05875000 5.41625000
501 3 11.60625000 10.05875000 6.96375000
502 3 11.60625000 10.05875000 8.51125000
503 3 11.60625000 10.05875000 10.05875000
504 3 11.60625000 10.05875000 11.60625000
505 3 11.60625000 11.60625000 0.77375000
506 3 11.60625000 11.60625000 2.32125000
507 3 11.60625000 11.60625000 3.86875000
508 3 11.60625000 11.60625000 5.41625000
509 3 11.60625000 11.60625000 6.96375000
510 3 11.60625000 11.60625000 8.51125000
511 3 11.60625000 11.60625000 10.05875000
512 3 11.60625000 11.60625000 11.60625000
