LAMMPS Simulation Data
500 atoms
1 atom types

0 21.544346900318832 xlo xhi 
0 21.544346900318832 ylo yhi 
0 21.544346900318832 zlo zhi 

Masses

1 1.0

Atoms

1 1 1.34652168 1.34652168 1.34652168
2 1 1.34652168 1.34652168 4.03956504
3 1 1.34652168 1.34652168 6.73260841
4 1 1.34652168 1.34652168 9.42565177
5 1 1.34652168 1.34652168 12.11869513
6 1 1.34652168 1.34652168 14.81173849
7 1 1.34652168 1.34652168 17.50478186
8 1 1.34652168 1.34652168 20.19782522
9 1 1.34652168 4.03956504 1.34652168
10 1 1.34652168 4.03956504 4.03956504
11 1 1.34652168 4.03956504 6.73260841
12 1 1.34652168 4.03956504 9.42565177
13 1 1.34652168 4.03956504 12.11869513
14 1 1.34652168 4.03956504 14.81173849
15 1 1.34652168 4.03956504 17.50478186
16 1 1.34652168 4.03956504 20.19782522
17 1 1.34652168 6.73260841 1.34652168
18 1 1.34652168 6.73260841 4.03956504
19 1 1.34652168 6.73260841 6.73260841
20 1 1.34652168 6.73260841 9.42565177
21 1 1.34652168 6.73260841 12.11869513
22 1 1.34652168 6.73260841 14.81173849
23 1 1.34652168 6.73260841 17.50478186
24 1 1.34652168 6.73260841 20.19782522
25 1 1.34652168 9.42565177 1.34652168
26 1 1.34652168 9.42565177 4.03956504
27 1 1.34652168 9.42565177 6.73260841
28 1 1.34652168 9.42565177 9.42565177
29 1 1.34652168 9.42565177 12.11869513
30 1 1.34652168 9.42565177 14.81173849
31 1 1.34652168 9.42565177 17.50478186
32 1 1.34652168 9.42565177 20.19782522
33 1 1.34652168 12.11869513 1.34652168
34 1 1.34652168 12.11869513 4.03956504
35 1 1.34652168 12.11869513 6.73260841
36 1 1.34652168 12.11869513 9.42565177
37 1 1.34652168 12.11869513 12.11869513
38 1 1.34652168 12.11869513 14.81173849
39 1 1.34652168 12.11869513 17.50478186
40 1 1.34652168 12.11869513 20.19782522
41 1 1.34652168 14.81173849 1.34652168
42 1 1.34652168 14.81173849 4.03956504
43 1 1.34652168 14.81173849 6.73260841
44 1 1.34652168 14.81173849 9.42565177
45 1 1.34652168 14.81173849 12.11869513
46 1 1.34652168 14.81173849 14.81173849
47 1 1.34652168 14.81173849 17.50478186
48 1 1.34652168 14.81173849 20.19782522
49 1 1.34652168 17.50478186 1.34652168
50 1 1.34652168 17.50478186 4.03956504
51 1 1.34652168 17.50478186 6.73260841
52 1 1.34652168 17.50478186 9.42565177
53 1 1.34652168 17.50478186 12.11869513
54 1 1.34652168 17.50478186 14.81173849
55 1 1.34652168 17.50478186 17.50478186
56 1 1.34652168 17.50478186 20.19782522
57 1 1.34652168 20.19782522 1.34652168
58 1 1.34652168 20.19782522 4.03956504
59 1 1.34652168 20.19782522 6.73260841
60 1 1.34652168 20.19782522 9.42565177
61 1 1.34652168 20.19782522 12.11869513
62 1 1.34652168 20.19782522 14.81173849
63 1 1.34652168 20.19782522 17.50478186
64 1 1.34652168 20.19782522 20.19782522
65 1 4.03956504 1.34652168 1.34652168
66 1 4.03956504 1.34652168 4.03956504
67 1 4.03956504 1.34652168 6.73260841
68 1 4.03956504 1.34652168 9.42565177
69 1 4.03956504 1.34652168 12.11869513
70 1 4.03956504 1.34652168 14.81173849
71 1 4.03956504 1.34652168 17.50478186
72 1 4.03956504 1.34652168 20.19782522
73 1 4.03956504 4.03956504 1.34652168
74 1 4.03956504 4.03956504 4.03956504
75 1 4.03956504 4.03956504 6.73260841
76 1 4.03956504 4.03956504 9.42565177
77 1 4.03956504 4.03956504 12.11869513
78 1 4.03956504 4.03956504 14.81173849
79 1 4.03956504 4.03956504 17.50478186
80 1 4.03956504 4.03956504 20.19782522
81 1 4.03956504 6.73260841 1.34652168
82 1 4.03956504 6.73260841 4.03956504
83 1 4.03956504 6.73260841 6.73260841
84 1 4.03956504 6.73260841 9.42565177
85 1 4.03956504 6.73260841 12.11869513
86 1 4.03956504 6.73260841 14.81173849
87 1 4.03956504 6.73260841 17.50478186
88 1 4.03956504 6.73260841 20.19782522
89 1 4.03956504 9.42565177 1.34652168
90 1 4.03956504 9.42565177 4.03956504
91 1 4.03956504 9.42565177 6.73260841
92 1 4.03956504 9.42565177 9.42565177
93 1 4.03956504 9.42565177 12.11869513
94 1 4.03956504 9.42565177 14.81173849
95 1 4.03956504 9.42565177 17.50478186
96 1 4.03956504 9.42565177 20.19782522
97 1 4.03956504 12.11869513 1.34652168
98 1 4.03956504 12.11869513 4.03956504
99 1 4.03956504 12.11869513 6.73260841
100 1 4.03956504 12.11869513 9.42565177
101 1 4.03956504 12.11869513 12.11869513
102 1 4.03956504 12.11869513 14.81173849
103 1 4.03956504 12.11869513 17.50478186
104 1 4.03956504 12.11869513 20.19782522
105 1 4.03956504 14.81173849 1.34652168
106 1 4.03956504 14.81173849 4.03956504
107 1 4.03956504 14.81173849 6.73260841
108 1 4.03956504 14.81173849 9.42565177
109 1 4.03956504 14.81173849 12.11869513
110 1 4.03956504 14.81173849 14.81173849
111 1 4.03956504 14.81173849 17.50478186
112 1 4.03956504 14.81173849 20.19782522
113 1 4.03956504 17.50478186 1.34652168
114 1 4.03956504 17.50478186 4.03956504
115 1 4.03956504 17.50478186 6.73260841
116 1 4.03956504 17.50478186 9.42565177
117 1 4.03956504 17.50478186 12.11869513
118 1 4.03956504 17.50478186 14.81173849
119 1 4.03956504 17.50478186 17.50478186
120 1 4.03956504 17.50478186 20.19782522
121 1 4.03956504 20.19782522 1.34652168
122 1 4.03956504 20.19782522 4.03956504
123 1 4.03956504 20.19782522 6.73260841
124 1 4.03956504 20.19782522 9.42565177
125 1 4.03956504 20.19782522 12.11869513
126 1 4.03956504 20.19782522 14.81173849
127 1 4.03956504 20.19782522 17.50478186
128 1 4.03956504 20.19782522 20.19782522
129 1 6.73260841 1.34652168 1.34652168
130 1 6.73260841 1.34652168 4.03956504
131 1 6.73260841 1.34652168 6.73260841
132 1 6.73260841 1.34652168 9.42565177
133 1 6.73260841 1.34652168 12.11869513
134 1 6.73260841 1.34652168 14.81173849
135 1 6.73260841 1.34652168 17.50478186
136 1 6.73260841 1.34652168 20.19782522
137 1 6.73260841 4.03956504 1.34652168
138 1 6.73260841 4.03956504 4.03956504
139 1 6.73260841 4.03956504 6.73260841
140 1 6.73260841 4.03956504 9.42565177
141 1 6.73260841 4.03956504 12.11869513
142 1 6.73260841 4.03956504 14.81173849
143 1 6.73260841 4.03956504 17.50478186
144 1 6.73260841 4.03956504 20.19782522
145 1 6.73260841 6.73260841 1.34652168
146 1 6.73260841 6.73260841 4.03956504
147 1 6.73260841 6.73260841 6.73260841
148 1 6.73260841 6.73260841 9.42565177
149 1 6.73260841 6.73260841 12.11869513
150 1 6.73260841 6.73260841 14.81173849
151 1 6.73260841 6.73260841 17.50478186
152 1 6.73260841 6.73260841 20.19782522
153 1 6.73260841 9.42565177 1.34652168
154 1 6.73260841 9.42565177 4.03956504
155 1 6.73260841 9.42565177 6.73260841
156 1 6.73260841 9.42565177 9.42565177
157 1 6.73260841 9.42565177 12.11869513
158 1 6.73260841 9.42565177 14.81173849
159 1 6.73260841 9.42565177 17.50478186
160 1 6.73260841 9.42565177 20.19782522
161 1 6.73260841 12.11869513 1.34652168
162 1 6.73260841 12.11869513 4.03956504
163 1 6.73260841 12.11869513 6.73260841
164 1 6.73260841 12.11869513 9.42565177
165 1 6.73260841 12.11869513 12.11869513
166 1 6.73260841 12.11869513 14.81173849
167 1 6.73260841 12.11869513 17.50478186
168 1 6.73260841 12.11869513 20.19782522
169 1 6.73260841 14.81173849 1.34652168
170 1 6.73260841 14.81173849 4.03956504
171 1 6.73260841 14.81173849 6.73260841
172 1 6.73260841 14.81173849 9.42565177
173 1 6.73260841 14.81173849 12.11869513
174 1 6.73260841 14.81173849 14.81173849
175 1 6.73260841 14.81173849 17.50478186
176 1 6.73260841 14.81173849 20.19782522
177 1 6.73260841 17.50478186 1.34652168
178 1 6.73260841 17.50478186 4.03956504
179 1 6.73260841 17.50478186 6.73260841
180 1 6.73260841 17.50478186 9.42565177
181 1 6.73260841 17.50478186 12.11869513
182 1 6.73260841 17.50478186 14.81173849
183 1 6.73260841 17.50478186 17.50478186
184 1 6.73260841 17.50478186 20.19782522
185 1 6.73260841 20.19782522 1.34652168
186 1 6.73260841 20.19782522 4.03956504
187 1 6.73260841 20.19782522 6.73260841
188 1 6.73260841 20.19782522 9.42565177
189 1 6.73260841 20.19782522 12.11869513
190 1 6.73260841 20.19782522 14.81173849
191 1 6.73260841 20.19782522 17.50478186
192 1 6.73260841 20.19782522 20.19782522
193 1 9.42565177 1.34652168 1.34652168
194 1 9.42565177 1.34652168 4.03956504
195 1 9.42565177 1.34652168 6.73260841
196 1 9.42565177 1.34652168 9.42565177
197 1 9.42565177 1.34652168 12.11869513
198 1 9.42565177 1.34652168 14.81173849
199 1 9.42565177 1.34652168 17.50478186
200 1 9.42565177 1.34652168 20.19782522
201 1 9.42565177 4.03956504 1.34652168
202 1 9.42565177 4.03956504 4.03956504
203 1 9.42565177 4.03956504 6.73260841
204 1 9.42565177 4.03956504 9.42565177
205 1 9.42565177 4.03956504 12.11869513
206 1 9.42565177 4.03956504 14.81173849
207 1 9.42565177 4.03956504 17.50478186
208 1 9.42565177 4.03956504 20.19782522
209 1 9.42565177 6.73260841 1.34652168
210 1 9.42565177 6.73260841 4.03956504
211 1 9.42565177 6.73260841 6.73260841
212 1 9.42565177 6.73260841 9.42565177
213 1 9.42565177 6.73260841 12.11869513
214 1 9.42565177 6.73260841 14.81173849
215 1 9.42565177 6.73260841 17.50478186
216 1 9.42565177 6.73260841 20.19782522
217 1 9.42565177 9.42565177 1.34652168
218 1 9.42565177 9.42565177 4.03956504
219 1 9.42565177 9.42565177 6.73260841
220 1 9.42565177 9.42565177 9.42565177
221 1 9.42565177 9.42565177 12.11869513
222 1 9.42565177 9.42565177 14.81173849
223 1 9.42565177 9.42565177 17.50478186
224 1 9.42565177 9.42565177 20.19782522
225 1 9.42565177 12.11869513 1.34652168
226 1 9.42565177 12.11869513 4.03956504
227 1 9.42565177 12.11869513 6.73260841
228 1 9.42565177 12.11869513 9.42565177
229 1 9.42565177 12.11869513 12.11869513
230 1 9.42565177 12.11869513 14.81173849
231 1 9.42565177 12.11869513 17.50478186
232 1 9.42565177 12.11869513 20.19782522
233 1 9.42565177 14.81173849 1.34652168
234 1 9.42565177 14.81173849 4.03956504
235 1 9.42565177 14.81173849 6.73260841
236 1 9.42565177 14.81173849 9.42565177
237 1 9.42565177 14.81173849 12.11869513
238 1 9.42565177 14.81173849 14.81173849
239 1 9.42565177 14.81173849 17.50478186
240 1 9.42565177 14.81173849 20.19782522
241 1 9.42565177 17.50478186 1.34652168
242 1 9.42565177 17.50478186 4.03956504
243 1 9.42565177 17.50478186 6.73260841
244 1 9.42565177 17.50478186 9.42565177
245 1 9.42565177 17.50478186 12.11869513
246 1 9.42565177 17.50478186 14.81173849
247 1 9.42565177 17.50478186 17.50478186
248 1 9.42565177 17.50478186 20.19782522
249 1 9.42565177 20.19782522 1.34652168
250 1 9.42565177 20.19782522 4.03956504
251 1 9.42565177 20.19782522 6.73260841
252 1 9.42565177 20.19782522 9.42565177
253 1 9.42565177 20.19782522 12.11869513
254 1 9.42565177 20.19782522 14.81173849
255 1 9.42565177 20.19782522 17.50478186
256 1 9.42565177 20.19782522 20.19782522
257 1 12.11869513 1.34652168 1.34652168
258 1 12.11869513 1.34652168 4.03956504
259 1 12.11869513 1.34652168 6.73260841
260 1 12.11869513 1.34652168 9.42565177
261 1 12.11869513 1.34652168 12.11869513
262 1 12.11869513 1.34652168 14.81173849
263 1 12.11869513 1.34652168 17.50478186
264 1 12.11869513 1.34652168 20.19782522
265 1 12.11869513 4.03956504 1.34652168
266 1 12.11869513 4.03956504 4.03956504
267 1 12.11869513 4.03956504 6.73260841
268 1 12.11869513 4.03956504 9.42565177
269 1 12.11869513 4.03956504 12.11869513
270 1 12.11869513 4.03956504 14.81173849
271 1 12.11869513 4.03956504 17.50478186
272 1 12.11869513 4.03956504 20.19782522
273 1 12.11869513 6.73260841 1.34652168
274 1 12.11869513 6.73260841 4.03956504
275 1 12.11869513 6.73260841 6.73260841
276 1 12.11869513 6.73260841 9.42565177
277 1 12.11869513 6.73260841 12.11869513
278 1 12.11869513 6.73260841 14.81173849
279 1 12.11869513 6.73260841 17.50478186
280 1 12.11869513 6.73260841 20.19782522
281 1 12.11869513 9.42565177 1.34652168
282 1 12.11869513 9.42565177 4.03956504
283 1 12.11869513 9.42565177 6.73260841
284 1 12.11869513 9.42565177 9.42565177
285 1 12.11869513 9.42565177 12.11869513
286 1 12.11869513 9.42565177 14.81173849
287 1 12.11869513 9.42565177 17.50478186
288 1 12.11869513 9.42565177 20.19782522
289 1 12.11869513 12.11869513 1.34652168
290 1 12.11869513 12.11869513 4.03956504
291 1 12.11869513 12.11869513 6.73260841
292 1 12.11869513 12.11869513 9.42565177
293 1 12.11869513 12.11869513 12.11869513
294 1 12.11869513 12.11869513 14.81173849
295 1 12.11869513 12.11869513 17.50478186
296 1 12.11869513 12.11869513 20.19782522
297 1 12.11869513 14.81173849 1.34652168
298 1 12.11869513 14.81173849 4.03956504
299 1 12.11869513 14.81173849 6.73260841
300 1 12.11869513 14.81173849 9.42565177
301 1 12.11869513 14.81173849 12.11869513
302 1 12.11869513 14.81173849 14.81173849
303 1 12.11869513 14.81173849 17.50478186
304 1 12.11869513 14.81173849 20.19782522
305 1 12.11869513 17.50478186 1.34652168
306 1 12.11869513 17.50478186 4.03956504
307 1 12.11869513 17.50478186 6.73260841
308 1 12.11869513 17.50478186 9.42565177
309 1 12.11869513 17.50478186 12.11869513
310 1 12.11869513 17.50478186 14.81173849
311 1 12.11869513 17.50478186 17.50478186
312 1 12.11869513 17.50478186 20.19782522
313 1 12.11869513 20.19782522 1.34652168
314 1 12.11869513 20.19782522 4.03956504
315 1 12.11869513 20.19782522 6.73260841
316 1 12.11869513 20.19782522 9.42565177
317 1 12.11869513 20.19782522 12.11869513
318 1 12.11869513 20.19782522 14.81173849
319 1 12.11869513 20.19782522 17.50478186
320 1 12.11869513 20.19782522 20.19782522
321 1 14.81173849 1.34652168 1.34652168
322 1 14.81173849 1.34652168 4.03956504
323 1 14.81173849 1.34652168 6.73260841
324 1 14.81173849 1.34652168 9.42565177
325 1 14.81173849 1.34652168 12.11869513
326 1 14.81173849 1.34652168 14.81173849
327 1 14.81173849 1.34652168 17.50478186
328 1 14.81173849 1.34652168 20.19782522
329 1 14.81173849 4.03956504 1.34652168
330 1 14.81173849 4.03956504 4.03956504
331 1 14.81173849 4.03956504 6.73260841
332 1 14.81173849 4.03956504 9.42565177
333 1 14.81173849 4.03956504 12.11869513
334 1 14.81173849 4.03956504 14.81173849
335 1 14.81173849 4.03956504 17.50478186
336 1 14.81173849 4.03956504 20.19782522
337 1 14.81173849 6.73260841 1.34652168
338 1 14.81173849 6.73260841 4.03956504
339 1 14.81173849 6.73260841 6.73260841
340 1 14.81173849 6.73260841 9.42565177
341 1 14.81173849 6.73260841 12.11869513
342 1 14.81173849 6.73260841 14.81173849
343 1 14.81173849 6.73260841 17.50478186
344 1 14.81173849 6.73260841 20.19782522
345 1 14.81173849 9.42565177 1.34652168
346 1 14.81173849 9.42565177 4.03956504
347 1 14.81173849 9.42565177 6.73260841
348 1 14.81173849 9.42565177 9.42565177
349 1 14.81173849 9.42565177 12.11869513
350 1 14.81173849 9.42565177 14.81173849
351 1 14.81173849 9.42565177 17.50478186
352 1 14.81173849 9.42565177 20.19782522
353 1 14.81173849 12.11869513 1.34652168
354 1 14.81173849 12.11869513 4.03956504
355 1 14.81173849 12.11869513 6.73260841
356 1 14.81173849 12.11869513 9.42565177
357 1 14.81173849 12.11869513 12.11869513
358 1 14.81173849 12.11869513 14.81173849
359 1 14.81173849 12.11869513 17.50478186
360 1 14.81173849 12.11869513 20.19782522
361 1 14.81173849 14.81173849 1.34652168
362 1 14.81173849 14.81173849 4.03956504
363 1 14.81173849 14.81173849 6.73260841
364 1 14.81173849 14.81173849 9.42565177
365 1 14.81173849 14.81173849 12.11869513
366 1 14.81173849 14.81173849 14.81173849
367 1 14.81173849 14.81173849 17.50478186
368 1 14.81173849 14.81173849 20.19782522
369 1 14.81173849 17.50478186 1.34652168
370 1 14.81173849 17.50478186 4.03956504
371 1 14.81173849 17.50478186 6.73260841
372 1 14.81173849 17.50478186 9.42565177
373 1 14.81173849 17.50478186 12.11869513
374 1 14.81173849 17.50478186 14.81173849
375 1 14.81173849 17.50478186 17.50478186
376 1 14.81173849 17.50478186 20.19782522
377 1 14.81173849 20.19782522 1.34652168
378 1 14.81173849 20.19782522 4.03956504
379 1 14.81173849 20.19782522 6.73260841
380 1 14.81173849 20.19782522 9.42565177
381 1 14.81173849 20.19782522 12.11869513
382 1 14.81173849 20.19782522 14.81173849
383 1 14.81173849 20.19782522 17.50478186
384 1 14.81173849 20.19782522 20.19782522
385 1 17.50478186 1.34652168 1.34652168
386 1 17.50478186 1.34652168 4.03956504
387 1 17.50478186 1.34652168 6.73260841
388 1 17.50478186 1.34652168 9.42565177
389 1 17.50478186 1.34652168 12.11869513
390 1 17.50478186 1.34652168 14.81173849
391 1 17.50478186 1.34652168 17.50478186
392 1 17.50478186 1.34652168 20.19782522
393 1 17.50478186 4.03956504 1.34652168
394 1 17.50478186 4.03956504 4.03956504
395 1 17.50478186 4.03956504 6.73260841
396 1 17.50478186 4.03956504 9.42565177
397 1 17.50478186 4.03956504 12.11869513
398 1 17.50478186 4.03956504 14.81173849
399 1 17.50478186 4.03956504 17.50478186
400 1 17.50478186 4.03956504 20.19782522
401 1 17.50478186 6.73260841 1.34652168
402 1 17.50478186 6.73260841 4.03956504
403 1 17.50478186 6.73260841 6.73260841
404 1 17.50478186 6.73260841 9.42565177
405 1 17.50478186 6.73260841 12.11869513
406 1 17.50478186 6.73260841 14.81173849
407 1 17.50478186 6.73260841 17.50478186
408 1 17.50478186 6.73260841 20.19782522
409 1 17.50478186 9.42565177 1.34652168
410 1 17.50478186 9.42565177 4.03956504
411 1 17.50478186 9.42565177 6.73260841
412 1 17.50478186 9.42565177 9.42565177
413 1 17.50478186 9.42565177 12.11869513
414 1 17.50478186 9.42565177 14.81173849
415 1 17.50478186 9.42565177 17.50478186
416 1 17.50478186 9.42565177 20.19782522
417 1 17.50478186 12.11869513 1.34652168
418 1 17.50478186 12.11869513 4.03956504
419 1 17.50478186 12.11869513 6.73260841
420 1 17.50478186 12.11869513 9.42565177
421 1 17.50478186 12.11869513 12.11869513
422 1 17.50478186 12.11869513 14.81173849
423 1 17.50478186 12.11869513 17.50478186
424 1 17.50478186 12.11869513 20.19782522
425 1 17.50478186 14.81173849 1.34652168
426 1 17.50478186 14.81173849 4.03956504
427 1 17.50478186 14.81173849 6.73260841
428 1 17.50478186 14.81173849 9.42565177
429 1 17.50478186 14.81173849 12.11869513
430 1 17.50478186 14.81173849 14.81173849
431 1 17.50478186 14.81173849 17.50478186
432 1 17.50478186 14.81173849 20.19782522
433 1 17.50478186 17.50478186 1.34652168
434 1 17.50478186 17.50478186 4.03956504
435 1 17.50478186 17.50478186 6.73260841
436 1 17.50478186 17.50478186 9.42565177
437 1 17.50478186 17.50478186 12.11869513
438 1 17.50478186 17.50478186 14.81173849
439 1 17.50478186 17.50478186 17.50478186
440 1 17.50478186 17.50478186 20.19782522
441 1 17.50478186 20.19782522 1.34652168
442 1 17.50478186 20.19782522 4.03956504
443 1 17.50478186 20.19782522 6.73260841
444 1 17.50478186 20.19782522 9.42565177
445 1 17.50478186 20.19782522 12.11869513
446 1 17.50478186 20.19782522 14.81173849
447 1 17.50478186 20.19782522 17.50478186
448 1 17.50478186 20.19782522 20.19782522
449 1 20.19782522 1.34652168 1.34652168
450 1 20.19782522 1.34652168 4.03956504
451 1 20.19782522 1.34652168 6.73260841
452 1 20.19782522 1.34652168 9.42565177
453 1 20.19782522 1.34652168 12.11869513
454 1 20.19782522 1.34652168 14.81173849
455 1 20.19782522 1.34652168 17.50478186
456 1 20.19782522 1.34652168 20.19782522
457 1 20.19782522 4.03956504 1.34652168
458 1 20.19782522 4.03956504 4.03956504
459 1 20.19782522 4.03956504 6.73260841
460 1 20.19782522 4.03956504 9.42565177
461 1 20.19782522 4.03956504 12.11869513
462 1 20.19782522 4.03956504 14.81173849
463 1 20.19782522 4.03956504 17.50478186
464 1 20.19782522 4.03956504 20.19782522
465 1 20.19782522 6.73260841 1.34652168
466 1 20.19782522 6.73260841 4.03956504
467 1 20.19782522 6.73260841 6.73260841
468 1 20.19782522 6.73260841 9.42565177
469 1 20.19782522 6.73260841 12.11869513
470 1 20.19782522 6.73260841 14.81173849
471 1 20.19782522 6.73260841 17.50478186
472 1 20.19782522 6.73260841 20.19782522
473 1 20.19782522 9.42565177 1.34652168
474 1 20.19782522 9.42565177 4.03956504
475 1 20.19782522 9.42565177 6.73260841
476 1 20.19782522 9.42565177 9.42565177
477 1 20.19782522 9.42565177 12.11869513
478 1 20.19782522 9.42565177 14.81173849
479 1 20.19782522 9.42565177 17.50478186
480 1 20.19782522 9.42565177 20.19782522
481 1 20.19782522 12.11869513 1.34652168
482 1 20.19782522 12.11869513 4.03956504
483 1 20.19782522 12.11869513 6.73260841
484 1 20.19782522 12.11869513 9.42565177
485 1 20.19782522 12.11869513 12.11869513
486 1 20.19782522 12.11869513 14.81173849
487 1 20.19782522 12.11869513 17.50478186
488 1 20.19782522 12.11869513 20.19782522
489 1 20.19782522 14.81173849 1.34652168
490 1 20.19782522 14.81173849 4.03956504
491 1 20.19782522 14.81173849 6.73260841
492 1 20.19782522 14.81173849 9.42565177
493 1 20.19782522 14.81173849 12.11869513
494 1 20.19782522 14.81173849 14.81173849
495 1 20.19782522 14.81173849 17.50478186
496 1 20.19782522 14.81173849 20.19782522
497 1 20.19782522 17.50478186 1.34652168
498 1 20.19782522 17.50478186 4.03956504
499 1 20.19782522 17.50478186 6.73260841
500 1 20.19782522 17.50478186 9.42565177
