LAMMPS Simulation Data
512 atoms
2 atom types

0 108.6 xlo xhi 
0 108.6 ylo yhi 
0 108.6 zlo zhi 

Masses

1 1.0
2 1.0

Atoms

1 1 6.78750000 6.78750000 6.78750000
2 1 6.78750000 6.78750000 20.36250000
3 1 6.78750000 6.78750000 33.93750000
4 1 6.78750000 6.78750000 47.51250000
5 1 6.78750000 6.78750000 61.08750000
6 1 6.78750000 6.78750000 74.66250000
7 1 6.78750000 6.78750000 88.23750000
8 1 6.78750000 6.78750000 101.81250000
9 1 6.78750000 20.36250000 6.78750000
10 1 6.78750000 20.36250000 20.36250000
11 1 6.78750000 20.36250000 33.93750000
12 1 6.78750000 20.36250000 47.51250000
13 1 6.78750000 20.36250000 61.08750000
14 1 6.78750000 20.36250000 74.66250000
15 1 6.78750000 20.36250000 88.23750000
16 1 6.78750000 20.36250000 101.81250000
17 1 6.78750000 33.93750000 6.78750000
18 1 6.78750000 33.93750000 20.36250000
19 1 6.78750000 33.93750000 33.93750000
20 1 6.78750000 33.93750000 47.51250000
21 1 6.78750000 33.93750000 61.08750000
22 1 6.78750000 33.93750000 74.66250000
23 1 6.78750000 33.93750000 88.23750000
24 1 6.78750000 33.93750000 101.81250000
25 1 6.78750000 47.51250000 6.78750000
26 1 6.78750000 47.51250000 20.36250000
27 1 6.78750000 47.51250000 33.93750000
28 1 6.78750000 47.51250000 47.51250000
29 1 6.78750000 47.51250000 61.08750000
30 1 6.78750000 47.51250000 74.66250000
31 1 6.78750000 47.51250000 88.23750000
32 1 6.78750000 47.51250000 101.81250000
33 1 6.78750000 61.08750000 6.78750000
34 1 6.78750000 61.08750000 20.36250000
35 1 6.78750000 61.08750000 33.93750000
36 1 6.78750000 61.08750000 47.51250000
37 1 6.78750000 61.08750000 61.08750000
38 1 6.78750000 61.08750000 74.66250000
39 1 6.78750000 61.08750000 88.23750000
40 1 6.78750000 61.08750000 101.81250000
41 1 6.78750000 74.66250000 6.78750000
42 1 6.78750000 74.66250000 20.36250000
43 1 6.78750000 74.66250000 33.93750000
44 1 6.78750000 74.66250000 47.51250000
45 1 6.78750000 74.66250000 61.08750000
46 1 6.78750000 74.66250000 74.66250000
47 1 6.78750000 74.66250000 88.23750000
48 1 6.78750000 74.66250000 101.81250000
49 1 6.78750000 88.23750000 6.78750000
50 1 6.78750000 88.23750000 20.36250000
51 1 6.78750000 88.23750000 33.93750000
52 1 6.78750000 88.23750000 47.51250000
53 1 6.78750000 88.23750000 61.08750000
54 1 6.78750000 88.23750000 74.66250000
55 1 6.78750000 88.23750000 88.23750000
56 1 6.78750000 88.23750000 101.81250000
57 1 6.78750000 101.81250000 6.78750000
58 1 6.78750000 101.81250000 20.36250000
59 1 6.78750000 101.81250000 33.93750000
60 1 6.78750000 101.81250000 47.51250000
61 1 6.78750000 101.81250000 61.08750000
62 1 6.78750000 101.81250000 74.66250000
63 1 6.78750000 101.81250000 88.23750000
64 1 6.78750000 101.81250000 101.81250000
65 1 20.36250000 6.78750000 6.78750000
66 1 20.36250000 6.78750000 20.36250000
67 1 20.36250000 6.78750000 33.93750000
68 1 20.36250000 6.78750000 47.51250000
69 1 20.36250000 6.78750000 61.08750000
70 1 20.36250000 6.78750000 74.66250000
71 1 20.36250000 6.78750000 88.23750000
72 1 20.36250000 6.78750000 101.81250000
73 1 20.36250000 20.36250000 6.78750000
74 1 20.36250000 20.36250000 20.36250000
75 1 20.36250000 20.36250000 33.93750000
76 1 20.36250000 20.36250000 47.51250000
77 1 20.36250000 20.36250000 61.08750000
78 1 20.36250000 20.36250000 74.66250000
79 1 20.36250000 20.36250000 88.23750000
80 1 20.36250000 20.36250000 101.81250000
81 1 20.36250000 33.93750000 6.78750000
82 1 20.36250000 33.93750000 20.36250000
83 1 20.36250000 33.93750000 33.93750000
84 1 20.36250000 33.93750000 47.51250000
85 1 20.36250000 33.93750000 61.08750000
86 1 20.36250000 33.93750000 74.66250000
87 1 20.36250000 33.93750000 88.23750000
88 1 20.36250000 33.93750000 101.81250000
89 1 20.36250000 47.51250000 6.78750000
90 1 20.36250000 47.51250000 20.36250000
91 1 20.36250000 47.51250000 33.93750000
92 1 20.36250000 47.51250000 47.51250000
93 1 20.36250000 47.51250000 61.08750000
94 1 20.36250000 47.51250000 74.66250000
95 1 20.36250000 47.51250000 88.23750000
96 1 20.36250000 47.51250000 101.81250000
97 1 20.36250000 61.08750000 6.78750000
98 1 20.36250000 61.08750000 20.36250000
99 1 20.36250000 61.08750000 33.93750000
100 1 20.36250000 61.08750000 47.51250000
101 1 20.36250000 61.08750000 61.08750000
102 1 20.36250000 61.08750000 74.66250000
103 1 20.36250000 61.08750000 88.23750000
104 1 20.36250000 61.08750000 101.81250000
105 1 20.36250000 74.66250000 6.78750000
106 1 20.36250000 74.66250000 20.36250000
107 1 20.36250000 74.66250000 33.93750000
108 1 20.36250000 74.66250000 47.51250000
109 1 20.36250000 74.66250000 61.08750000
110 1 20.36250000 74.66250000 74.66250000
111 1 20.36250000 74.66250000 88.23750000
112 1 20.36250000 74.66250000 101.81250000
113 1 20.36250000 88.23750000 6.78750000
114 1 20.36250000 88.23750000 20.36250000
115 1 20.36250000 88.23750000 33.93750000
116 1 20.36250000 88.23750000 47.51250000
117 1 20.36250000 88.23750000 61.08750000
118 1 20.36250000 88.23750000 74.66250000
119 1 20.36250000 88.23750000 88.23750000
120 1 20.36250000 88.23750000 101.81250000
121 1 20.36250000 101.81250000 6.78750000
122 1 20.36250000 101.81250000 20.36250000
123 1 20.36250000 101.81250000 33.93750000
124 1 20.36250000 101.81250000 47.51250000
125 1 20.36250000 101.81250000 61.08750000
126 1 20.36250000 101.81250000 74.66250000
127 1 20.36250000 101.81250000 88.23750000
128 1 20.36250000 101.81250000 101.81250000
129 1 33.93750000 6.78750000 6.78750000
130 1 33.93750000 6.78750000 20.36250000
131 1 33.93750000 6.78750000 33.93750000
132 1 33.93750000 6.78750000 47.51250000
133 1 33.93750000 6.78750000 61.08750000
134 1 33.93750000 6.78750000 74.66250000
135 1 33.93750000 6.78750000 88.23750000
136 1 33.93750000 6.78750000 101.81250000
137 1 33.93750000 20.36250000 6.78750000
138 1 33.93750000 20.36250000 20.36250000
139 1 33.93750000 20.36250000 33.93750000
140 1 33.93750000 20.36250000 47.51250000
141 1 33.93750000 20.36250000 61.08750000
142 1 33.93750000 20.36250000 74.66250000
143 1 33.93750000 20.36250000 88.23750000
144 1 33.93750000 20.36250000 101.81250000
145 1 33.93750000 33.93750000 6.78750000
146 1 33.93750000 33.93750000 20.36250000
147 1 33.93750000 33.93750000 33.93750000
148 1 33.93750000 33.93750000 47.51250000
149 1 33.93750000 33.93750000 61.08750000
150 1 33.93750000 33.93750000 74.66250000
151 1 33.93750000 33.93750000 88.23750000
152 1 33.93750000 33.93750000 101.81250000
153 1 33.93750000 47.51250000 6.78750000
154 1 33.93750000 47.51250000 20.36250000
155 1 33.93750000 47.51250000 33.93750000
156 1 33.93750000 47.51250000 47.51250000
157 1 33.93750000 47.51250000 61.08750000
158 1 33.93750000 47.51250000 74.66250000
159 1 33.93750000 47.51250000 88.23750000
160 1 33.93750000 47.51250000 101.81250000
161 1 33.93750000 61.08750000 6.78750000
162 1 33.93750000 61.08750000 20.36250000
163 1 33.93750000 61.08750000 33.93750000
164 1 33.93750000 61.08750000 47.51250000
165 1 33.93750000 61.08750000 61.08750000
166 1 33.93750000 61.08750000 74.66250000
167 1 33.93750000 61.08750000 88.23750000
168 1 33.93750000 61.08750000 101.81250000
169 1 33.93750000 74.66250000 6.78750000
170 1 33.93750000 74.66250000 20.36250000
171 1 33.93750000 74.66250000 33.93750000
172 1 33.93750000 74.66250000 47.51250000
173 1 33.93750000 74.66250000 61.08750000
174 1 33.93750000 74.66250000 74.66250000
175 1 33.93750000 74.66250000 88.23750000
176 1 33.93750000 74.66250000 101.81250000
177 1 33.93750000 88.23750000 6.78750000
178 1 33.93750000 88.23750000 20.36250000
179 1 33.93750000 88.23750000 33.93750000
180 1 33.93750000 88.23750000 47.51250000
181 1 33.93750000 88.23750000 61.08750000
182 1 33.93750000 88.23750000 74.66250000
183 1 33.93750000 88.23750000 88.23750000
184 1 33.93750000 88.23750000 101.81250000
185 1 33.93750000 101.81250000 6.78750000
186 1 33.93750000 101.81250000 20.36250000
187 1 33.93750000 101.81250000 33.93750000
188 1 33.93750000 101.81250000 47.51250000
189 1 33.93750000 101.81250000 61.08750000
190 1 33.93750000 101.81250000 74.66250000
191 1 33.93750000 101.81250000 88.23750000
192 1 33.93750000 101.81250000 101.81250000
193 1 47.51250000 6.78750000 6.78750000
194 1 47.51250000 6.78750000 20.36250000
195 1 47.51250000 6.78750000 33.93750000
196 1 47.51250000 6.78750000 47.51250000
197 1 47.51250000 6.78750000 61.08750000
198 1 47.51250000 6.78750000 74.66250000
199 1 47.51250000 6.78750000 88.23750000
200 1 47.51250000 6.78750000 101.81250000
201 1 47.51250000 20.36250000 6.78750000
202 1 47.51250000 20.36250000 20.36250000
203 1 47.51250000 20.36250000 33.93750000
204 1 47.51250000 20.36250000 47.51250000
205 1 47.51250000 20.36250000 61.08750000
206 1 47.51250000 20.36250000 74.66250000
207 1 47.51250000 20.36250000 88.23750000
208 1 47.51250000 20.36250000 101.81250000
209 1 47.51250000 33.93750000 6.78750000
210 1 47.51250000 33.93750000 20.36250000
211 1 47.51250000 33.93750000 33.93750000
212 1 47.51250000 33.93750000 47.51250000
213 1 47.51250000 33.93750000 61.08750000
214 1 47.51250000 33.93750000 74.66250000
215 1 47.51250000 33.93750000 88.23750000
216 1 47.51250000 33.93750000 101.81250000
217 1 47.51250000 47.51250000 6.78750000
218 1 47.51250000 47.51250000 20.36250000
219 1 47.51250000 47.51250000 33.93750000
220 1 47.51250000 47.51250000 47.51250000
221 1 47.51250000 47.51250000 61.08750000
222 1 47.51250000 47.51250000 74.66250000
223 1 47.51250000 47.51250000 88.23750000
224 1 47.51250000 47.51250000 101.81250000
225 1 47.51250000 61.08750000 6.78750000
226 1 47.51250000 61.08750000 20.36250000
227 1 47.51250000 61.08750000 33.93750000
228 1 47.51250000 61.08750000 47.51250000
229 1 47.51250000 61.08750000 61.08750000
230 1 47.51250000 61.08750000 74.66250000
231 1 47.51250000 61.08750000 88.23750000
232 1 47.51250000 61.08750000 101.81250000
233 1 47.51250000 74.66250000 6.78750000
234 1 47.51250000 74.66250000 20.36250000
235 1 47.51250000 74.66250000 33.93750000
236 1 47.51250000 74.66250000 47.51250000
237 1 47.51250000 74.66250000 61.08750000
238 1 47.51250000 74.66250000 74.66250000
239 1 47.51250000 74.66250000 88.23750000
240 1 47.51250000 74.66250000 101.81250000
241 1 47.51250000 88.23750000 6.78750000
242 1 47.51250000 88.23750000 20.36250000
243 1 47.51250000 88.23750000 33.93750000
244 1 47.51250000 88.23750000 47.51250000
245 1 47.51250000 88.23750000 61.08750000
246 1 47.51250000 88.23750000 74.66250000
247 1 47.51250000 88.23750000 88.23750000
248 1 47.51250000 88.23750000 101.81250000
249 1 47.51250000 101.81250000 6.78750000
250 1 47.51250000 101.81250000 20.36250000
251 1 47.51250000 101.81250000 33.93750000
252 1 47.51250000 101.81250000 47.51250000
253 1 47.51250000 101.81250000 61.08750000
254 1 47.51250000 101.81250000 74.66250000
255 1 47.51250000 101.81250000 88.23750000
256 1 47.51250000 101.81250000 101.81250000
257 2 61.08750000 6.78750000 6.78750000
258 2 61.08750000 6.78750000 20.36250000
259 2 61.08750000 6.78750000 33.93750000
260 2 61.08750000 6.78750000 47.51250000
261 2 61.08750000 6.78750000 61.08750000
262 2 61.08750000 6.78750000 74.66250000
263 2 61.08750000 6.78750000 88.23750000
264 2 61.08750000 6.78750000 101.81250000
265 2 61.08750000 20.36250000 6.78750000
266 2 61.08750000 20.36250000 20.36250000
267 2 61.08750000 20.36250000 33.93750000
268 2 61.08750000 20.36250000 47.51250000
269 2 61.08750000 20.36250000 61.08750000
270 2 61.08750000 20.36250000 74.66250000
271 2 61.08750000 20.36250000 88.23750000
272 2 61.08750000 20.36250000 101.81250000
273 2 61.08750000 33.93750000 6.78750000
274 2 61.08750000 33.93750000 20.36250000
275 2 61.08750000 33.93750000 33.93750000
276 2 61.08750000 33.93750000 47.51250000
277 2 61.08750000 33.93750000 61.08750000
278 2 61.08750000 33.93750000 74.66250000
279 2 61.08750000 33.93750000 88.23750000
280 2 61.08750000 33.93750000 101.81250000
281 2 61.08750000 47.51250000 6.78750000
282 2 61.08750000 47.51250000 20.36250000
283 2 61.08750000 47.51250000 33.93750000
284 2 61.08750000 47.51250000 47.51250000
285 2 61.08750000 47.51250000 61.08750000
286 2 61.08750000 47.51250000 74.66250000
287 2 61.08750000 47.51250000 88.23750000
288 2 61.08750000 47.51250000 101.81250000
289 2 61.08750000 61.08750000 6.78750000
290 2 61.08750000 61.08750000 20.36250000
291 2 61.08750000 61.08750000 33.93750000
292 2 61.08750000 61.08750000 47.51250000
293 2 61.08750000 61.08750000 61.08750000
294 2 61.08750000 61.08750000 74.66250000
295 2 61.08750000 61.08750000 88.23750000
296 2 61.08750000 61.08750000 101.81250000
297 2 61.08750000 74.66250000 6.78750000
298 2 61.08750000 74.66250000 20.36250000
299 2 61.08750000 74.66250000 33.93750000
300 2 61.08750000 74.66250000 47.51250000
301 2 61.08750000 74.66250000 61.08750000
302 2 61.08750000 74.66250000 74.66250000
303 2 61.08750000 74.66250000 88.23750000
304 2 61.08750000 74.66250000 101.81250000
305 2 61.08750000 88.23750000 6.78750000
306 2 61.08750000 88.23750000 20.36250000
307 2 61.08750000 88.23750000 33.93750000
308 2 61.08750000 88.23750000 47.51250000
309 2 61.08750000 88.23750000 61.08750000
310 2 61.08750000 88.23750000 74.66250000
311 2 61.08750000 88.23750000 88.23750000
312 2 61.08750000 88.23750000 101.81250000
313 2 61.08750000 101.81250000 6.78750000
314 2 61.08750000 101.81250000 20.36250000
315 2 61.08750000 101.81250000 33.93750000
316 2 61.08750000 101.81250000 47.51250000
317 2 61.08750000 101.81250000 61.08750000
318 2 61.08750000 101.81250000 74.66250000
319 2 61.08750000 101.81250000 88.23750000
320 2 61.08750000 101.81250000 101.81250000
321 2 74.66250000 6.78750000 6.78750000
322 2 74.66250000 6.78750000 20.36250000
323 2 74.66250000 6.78750000 33.93750000
324 2 74.66250000 6.78750000 47.51250000
325 2 74.66250000 6.78750000 61.08750000
326 2 74.66250000 6.78750000 74.66250000
327 2 74.66250000 6.78750000 88.23750000
328 2 74.66250000 6.78750000 101.81250000
329 2 74.66250000 20.36250000 6.78750000
330 2 74.66250000 20.36250000 20.36250000
331 2 74.66250000 20.36250000 33.93750000
332 2 74.66250000 20.36250000 47.51250000
333 2 74.66250000 20.36250000 61.08750000
334 2 74.66250000 20.36250000 74.66250000
335 2 74.66250000 20.36250000 88.23750000
336 2 74.66250000 20.36250000 101.81250000
337 2 74.66250000 33.93750000 6.78750000
338 2 74.66250000 33.93750000 20.36250000
339 2 74.66250000 33.93750000 33.93750000
340 2 74.66250000 33.93750000 47.51250000
341 2 74.66250000 33.93750000 61.08750000
342 2 74.66250000 33.93750000 74.66250000
343 2 74.66250000 33.93750000 88.23750000
344 2 74.66250000 33.93750000 101.81250000
345 2 74.66250000 47.51250000 6.78750000
346 2 74.66250000 47.51250000 20.36250000
347 2 74.66250000 47.51250000 33.93750000
348 2 74.66250000 47.51250000 47.51250000
349 2 74.66250000 47.51250000 61.08750000
350 2 74.66250000 47.51250000 74.66250000
351 2 74.66250000 47.51250000 88.23750000
352 2 74.66250000 47.51250000 101.81250000
353 2 74.66250000 61.08750000 6.78750000
354 2 74.66250000 61.08750000 20.36250000
355 2 74.66250000 61.08750000 33.93750000
356 2 74.66250000 61.08750000 47.51250000
357 2 74.66250000 61.08750000 61.08750000
358 2 74.66250000 61.08750000 74.66250000
359 2 74.66250000 61.08750000 88.23750000
360 2 74.66250000 61.08750000 101.81250000
361 2 74.66250000 74.66250000 6.78750000
362 2 74.66250000 74.66250000 20.36250000
363 2 74.66250000 74.66250000 33.93750000
364 2 74.66250000 74.66250000 47.51250000
365 2 74.66250000 74.66250000 61.08750000
366 2 74.66250000 74.66250000 74.66250000
367 2 74.66250000 74.66250000 88.23750000
368 2 74.66250000 74.66250000 101.81250000
369 2 74.66250000 88.23750000 6.78750000
370 2 74.66250000 88.23750000 20.36250000
371 2 74.66250000 88.23750000 33.93750000
372 2 74.66250000 88.23750000 47.51250000
373 2 74.66250000 88.23750000 61.08750000
374 2 74.66250000 88.23750000 74.66250000
375 2 74.66250000 88.23750000 88.23750000
376 2 74.66250000 88.23750000 101.81250000
377 2 74.66250000 101.81250000 6.78750000
378 2 74.66250000 101.81250000 20.36250000
379 2 74.66250000 101.81250000 33.93750000
380 2 74.66250000 101.81250000 47.51250000
381 2 74.66250000 101.81250000 61.08750000
382 2 74.66250000 101.81250000 74.66250000
383 2 74.66250000 101.81250000 88.23750000
384 2 74.66250000 101.81250000 101.81250000
385 2 88.23750000 6.78750000 6.78750000
386 2 88.23750000 6.78750000 20.36250000
387 2 88.23750000 6.78750000 33.93750000
388 2 88.23750000 6.78750000 47.51250000
389 2 88.23750000 6.78750000 61.08750000
390 2 88.23750000 6.78750000 74.66250000
391 2 88.23750000 6.78750000 88.23750000
392 2 88.23750000 6.78750000 101.81250000
393 2 88.23750000 20.36250000 6.78750000
394 2 88.23750000 20.36250000 20.36250000
395 2 88.23750000 20.36250000 33.93750000
396 2 88.23750000 20.36250000 47.51250000
397 2 88.23750000 20.36250000 61.08750000
398 2 88.23750000 20.36250000 74.66250000
399 2 88.23750000 20.36250000 88.23750000
400 2 88.23750000 20.36250000 101.81250000
401 2 88.23750000 33.93750000 6.78750000
402 2 88.23750000 33.93750000 20.36250000
403 2 88.23750000 33.93750000 33.93750000
404 2 88.23750000 33.93750000 47.51250000
405 2 88.23750000 33.93750000 61.08750000
406 2 88.23750000 33.93750000 74.66250000
407 2 88.23750000 33.93750000 88.23750000
408 2 88.23750000 33.93750000 101.81250000
409 2 88.23750000 47.51250000 6.78750000
410 2 88.23750000 47.51250000 20.36250000
411 2 88.23750000 47.51250000 33.93750000
412 2 88.23750000 47.51250000 47.51250000
413 2 88.23750000 47.51250000 61.08750000
414 2 88.23750000 47.51250000 74.66250000
415 2 88.23750000 47.51250000 88.23750000
416 2 88.23750000 47.51250000 101.81250000
417 2 88.23750000 61.08750000 6.78750000
418 2 88.23750000 61.08750000 20.36250000
419 2 88.23750000 61.08750000 33.93750000
420 2 88.23750000 61.08750000 47.51250000
421 2 88.23750000 61.08750000 61.08750000
422 2 88.23750000 61.08750000 74.66250000
423 2 88.23750000 61.08750000 88.23750000
424 2 88.23750000 61.08750000 101.81250000
425 2 88.23750000 74.66250000 6.78750000
426 2 88.23750000 74.66250000 20.36250000
427 2 88.23750000 74.66250000 33.93750000
428 2 88.23750000 74.66250000 47.51250000
429 2 88.23750000 74.66250000 61.08750000
430 2 88.23750000 74.66250000 74.66250000
431 2 88.23750000 74.66250000 88.23750000
432 2 88.23750000 74.66250000 101.81250000
433 2 88.23750000 88.23750000 6.78750000
434 2 88.23750000 88.23750000 20.36250000
435 2 88.23750000 88.23750000 33.93750000
436 2 88.23750000 88.23750000 47.51250000
437 2 88.23750000 88.23750000 61.08750000
438 2 88.23750000 88.23750000 74.66250000
439 2 88.23750000 88.23750000 88.23750000
440 2 88.23750000 88.23750000 101.81250000
441 2 88.23750000 101.81250000 6.78750000
442 2 88.23750000 101.81250000 20.36250000
443 2 88.23750000 101.81250000 33.93750000
444 2 88.23750000 101.81250000 47.51250000
445 2 88.23750000 101.81250000 61.08750000
446 2 88.23750000 101.81250000 74.66250000
447 2 88.23750000 101.81250000 88.23750000
448 2 88.23750000 101.81250000 101.81250000
449 2 101.81250000 6.78750000 6.78750000
450 2 101.81250000 6.78750000 20.36250000
451 2 101.81250000 6.78750000 33.93750000
452 2 101.81250000 6.78750000 47.51250000
453 2 101.81250000 6.78750000 61.08750000
454 2 101.81250000 6.78750000 74.66250000
455 2 101.81250000 6.78750000 88.23750000
456 2 101.81250000 6.78750000 101.81250000
457 2 101.81250000 20.36250000 6.78750000
458 2 101.81250000 20.36250000 20.36250000
459 2 101.81250000 20.36250000 33.93750000
460 2 101.81250000 20.36250000 47.51250000
461 2 101.81250000 20.36250000 61.08750000
462 2 101.81250000 20.36250000 74.66250000
463 2 101.81250000 20.36250000 88.23750000
464 2 101.81250000 20.36250000 101.81250000
465 2 101.81250000 33.93750000 6.78750000
466 2 101.81250000 33.93750000 20.36250000
467 2 101.81250000 33.93750000 33.93750000
468 2 101.81250000 33.93750000 47.51250000
469 2 101.81250000 33.93750000 61.08750000
470 2 101.81250000 33.93750000 74.66250000
471 2 101.81250000 33.93750000 88.23750000
472 2 101.81250000 33.93750000 101.81250000
473 2 101.81250000 47.51250000 6.78750000
474 2 101.81250000 47.51250000 20.36250000
475 2 101.81250000 47.51250000 33.93750000
476 2 101.81250000 47.51250000 47.51250000
477 2 101.81250000 47.51250000 61.08750000
478 2 101.81250000 47.51250000 74.66250000
479 2 101.81250000 47.51250000 88.23750000
480 2 101.81250000 47.51250000 101.81250000
481 2 101.81250000 61.08750000 6.78750000
482 2 101.81250000 61.08750000 20.36250000
483 2 101.81250000 61.08750000 33.93750000
484 2 101.81250000 61.08750000 47.51250000
485 2 101.81250000 61.08750000 61.08750000
486 2 101.81250000 61.08750000 74.66250000
487 2 101.81250000 61.08750000 88.23750000
488 2 101.81250000 61.08750000 101.81250000
489 2 101.81250000 74.66250000 6.78750000
490 2 101.81250000 74.66250000 20.36250000
491 2 101.81250000 74.66250000 33.93750000
492 2 101.81250000 74.66250000 47.51250000
493 2 101.81250000 74.66250000 61.08750000
494 2 101.81250000 74.66250000 74.66250000
495 2 101.81250000 74.66250000 88.23750000
496 2 101.81250000 74.66250000 101.81250000
497 2 101.81250000 88.23750000 6.78750000
498 2 101.81250000 88.23750000 20.36250000
499 2 101.81250000 88.23750000 33.93750000
500 2 101.81250000 88.23750000 47.51250000
501 2 101.81250000 88.23750000 61.08750000
502 2 101.81250000 88.23750000 74.66250000
503 2 101.81250000 88.23750000 88.23750000
504 2 101.81250000 88.23750000 101.81250000
505 2 101.81250000 101.81250000 6.78750000
506 2 101.81250000 101.81250000 20.36250000
507 2 101.81250000 101.81250000 33.93750000
508 2 101.81250000 101.81250000 47.51250000
509 2 101.81250000 101.81250000 61.08750000
510 2 101.81250000 101.81250000 74.66250000
511 2 101.81250000 101.81250000 88.23750000
512 2 101.81250000 101.81250000 101.81250000
