LAMMPS Simulation Data
512 atoms
2 atom types

0 80.0 xlo xhi 
0 80.0 ylo yhi 
0 80.0 zlo zhi 

Masses

1 1.0
2 1.0

Atoms

1 1 5.00000000 5.00000000 5.00000000
2 1 5.00000000 5.00000000 15.00000000
3 1 5.00000000 5.00000000 25.00000000
4 1 5.00000000 5.00000000 35.00000000
5 1 5.00000000 5.00000000 45.00000000
6 1 5.00000000 5.00000000 55.00000000
7 1 5.00000000 5.00000000 65.00000000
8 1 5.00000000 5.00000000 75.00000000
9 1 5.00000000 15.00000000 5.00000000
10 1 5.00000000 15.00000000 15.00000000
11 1 5.00000000 15.00000000 25.00000000
12 1 5.00000000 15.00000000 35.00000000
13 1 5.00000000 15.00000000 45.00000000
14 1 5.00000000 15.00000000 55.00000000
15 1 5.00000000 15.00000000 65.00000000
16 1 5.00000000 15.00000000 75.00000000
17 1 5.00000000 25.00000000 5.00000000
18 1 5.00000000 25.00000000 15.00000000
19 1 5.00000000 25.00000000 25.00000000
20 1 5.00000000 25.00000000 35.00000000
21 1 5.00000000 25.00000000 45.00000000
22 1 5.00000000 25.00000000 55.00000000
23 1 5.00000000 25.00000000 65.00000000
24 1 5.00000000 25.00000000 75.00000000
25 1 5.00000000 35.00000000 5.00000000
26 1 5.00000000 35.00000000 15.00000000
27 1 5.00000000 35.00000000 25.00000000
28 1 5.00000000 35.00000000 35.00000000
29 1 5.00000000 35.00000000 45.00000000
30 1 5.00000000 35.00000000 55.00000000
31 1 5.00000000 35.00000000 65.00000000
32 1 5.00000000 35.00000000 75.00000000
33 1 5.00000000 45.00000000 5.00000000
34 1 5.00000000 45.00000000 15.00000000
35 1 5.00000000 45.00000000 25.00000000
36 1 5.00000000 45.00000000 35.00000000
37 1 5.00000000 45.00000000 45.00000000
38 1 5.00000000 45.00000000 55.00000000
39 1 5.00000000 45.00000000 65.00000000
40 1 5.00000000 45.00000000 75.00000000
41 1 5.00000000 55.00000000 5.00000000
42 1 5.00000000 55.00000000 15.00000000
43 1 5.00000000 55.00000000 25.00000000
44 1 5.00000000 55.00000000 35.00000000
45 1 5.00000000 55.00000000 45.00000000
46 1 5.00000000 55.00000000 55.00000000
47 1 5.00000000 55.00000000 65.00000000
48 1 5.00000000 55.00000000 75.00000000
49 1 5.00000000 65.00000000 5.00000000
50 1 5.00000000 65.00000000 15.00000000
51 1 5.00000000 65.00000000 25.00000000
52 1 5.00000000 65.00000000 35.00000000
53 1 5.00000000 65.00000000 45.00000000
54 1 5.00000000 65.00000000 55.00000000
55 1 5.00000000 65.00000000 65.00000000
56 1 5.00000000 65.00000000 75.00000000
57 1 5.00000000 75.00000000 5.00000000
58 1 5.00000000 75.00000000 15.00000000
59 1 5.00000000 75.00000000 25.00000000
60 1 5.00000000 75.00000000 35.00000000
61 1 5.00000000 75.00000000 45.00000000
62 1 5.00000000 75.00000000 55.00000000
63 1 5.00000000 75.00000000 65.00000000
64 1 5.00000000 75.00000000 75.00000000
65 1 15.00000000 5.00000000 5.00000000
66 1 15.00000000 5.00000000 15.00000000
67 1 15.00000000 5.00000000 25.00000000
68 1 15.00000000 5.00000000 35.00000000
69 1 15.00000000 5.00000000 45.00000000
70 1 15.00000000 5.00000000 55.00000000
71 1 15.00000000 5.00000000 65.00000000
72 1 15.00000000 5.00000000 75.00000000
73 1 15.00000000 15.00000000 5.00000000
74 1 15.00000000 15.00000000 15.00000000
75 1 15.00000000 15.00000000 25.00000000
76 1 15.00000000 15.00000000 35.00000000
77 1 15.00000000 15.00000000 45.00000000
78 1 15.00000000 15.00000000 55.00000000
79 1 15.00000000 15.00000000 65.00000000
80 1 15.00000000 15.00000000 75.00000000
81 1 15.00000000 25.00000000 5.00000000
82 1 15.00000000 25.00000000 15.00000000
83 1 15.00000000 25.00000000 25.00000000
84 1 15.00000000 25.00000000 35.00000000
85 1 15.00000000 25.00000000 45.00000000
86 1 15.00000000 25.00000000 55.00000000
87 1 15.00000000 25.00000000 65.00000000
88 1 15.00000000 25.00000000 75.00000000
89 1 15.00000000 35.00000000 5.00000000
90 1 15.00000000 35.00000000 15.00000000
91 1 15.00000000 35.00000000 25.00000000
92 1 15.00000000 35.00000000 35.00000000
93 1 15.00000000 35.00000000 45.00000000
94 1 15.00000000 35.00000000 55.00000000
95 1 15.00000000 35.00000000 65.00000000
96 1 15.00000000 35.00000000 75.00000000
97 1 15.00000000 45.00000000 5.00000000
98 1 15.00000000 45.00000000 15.00000000
99 1 15.00000000 45.00000000 25.00000000
100 1 15.00000000 45.00000000 35.00000000
101 1 15.00000000 45.00000000 45.00000000
102 1 15.00000000 45.00000000 55.00000000
103 1 15.00000000 45.00000000 65.00000000
104 1 15.00000000 45.00000000 75.00000000
105 1 15.00000000 55.00000000 5.00000000
106 1 15.00000000 55.00000000 15.00000000
107 1 15.00000000 55.00000000 25.00000000
108 1 15.00000000 55.00000000 35.00000000
109 1 15.00000000 55.00000000 45.00000000
110 1 15.00000000 55.00000000 55.00000000
111 1 15.00000000 55.00000000 65.00000000
112 1 15.00000000 55.00000000 75.00000000
113 1 15.00000000 65.00000000 5.00000000
114 1 15.00000000 65.00000000 15.00000000
115 1 15.00000000 65.00000000 25.00000000
116 1 15.00000000 65.00000000 35.00000000
117 1 15.00000000 65.00000000 45.00000000
118 1 15.00000000 65.00000000 55.00000000
119 1 15.00000000 65.00000000 65.00000000
120 1 15.00000000 65.00000000 75.00000000
121 1 15.00000000 75.00000000 5.00000000
122 1 15.00000000 75.00000000 15.00000000
123 1 15.00000000 75.00000000 25.00000000
124 1 15.00000000 75.00000000 35.00000000
125 1 15.00000000 75.00000000 45.00000000
126 1 15.00000000 75.00000000 55.00000000
127 1 15.00000000 75.00000000 65.00000000
128 1 15.00000000 75.00000000 75.00000000
129 1 25.00000000 5.00000000 5.00000000
130 1 25.00000000 5.00000000 15.00000000
131 1 25.00000000 5.00000000 25.00000000
132 1 25.00000000 5.00000000 35.00000000
133 1 25.00000000 5.00000000 45.00000000
134 1 25.00000000 5.00000000 55.00000000
135 1 25.00000000 5.00000000 65.00000000
136 1 25.00000000 5.00000000 75.00000000
137 1 25.00000000 15.00000000 5.00000000
138 1 25.00000000 15.00000000 15.00000000
139 1 25.00000000 15.00000000 25.00000000
140 1 25.00000000 15.00000000 35.00000000
141 1 25.00000000 15.00000000 45.00000000
142 1 25.00000000 15.00000000 55.00000000
143 1 25.00000000 15.00000000 65.00000000
144 1 25.00000000 15.00000000 75.00000000
145 1 25.00000000 25.00000000 5.00000000
146 1 25.00000000 25.00000000 15.00000000
147 1 25.00000000 25.00000000 25.00000000
148 1 25.00000000 25.00000000 35.00000000
149 1 25.00000000 25.00000000 45.00000000
150 1 25.00000000 25.00000000 55.00000000
151 1 25.00000000 25.00000000 65.00000000
152 1 25.00000000 25.00000000 75.00000000
153 1 25.00000000 35.00000000 5.00000000
154 1 25.00000000 35.00000000 15.00000000
155 1 25.00000000 35.00000000 25.00000000
156 1 25.00000000 35.00000000 35.00000000
157 1 25.00000000 35.00000000 45.00000000
158 1 25.00000000 35.00000000 55.00000000
159 1 25.00000000 35.00000000 65.00000000
160 1 25.00000000 35.00000000 75.00000000
161 1 25.00000000 45.00000000 5.00000000
162 1 25.00000000 45.00000000 15.00000000
163 1 25.00000000 45.00000000 25.00000000
164 1 25.00000000 45.00000000 35.00000000
165 1 25.00000000 45.00000000 45.00000000
166 1 25.00000000 45.00000000 55.00000000
167 1 25.00000000 45.00000000 65.00000000
168 1 25.00000000 45.00000000 75.00000000
169 1 25.00000000 55.00000000 5.00000000
170 1 25.00000000 55.00000000 15.00000000
171 1 25.00000000 55.00000000 25.00000000
172 1 25.00000000 55.00000000 35.00000000
173 1 25.00000000 55.00000000 45.00000000
174 1 25.00000000 55.00000000 55.00000000
175 1 25.00000000 55.00000000 65.00000000
176 1 25.00000000 55.00000000 75.00000000
177 1 25.00000000 65.00000000 5.00000000
178 1 25.00000000 65.00000000 15.00000000
179 1 25.00000000 65.00000000 25.00000000
180 1 25.00000000 65.00000000 35.00000000
181 1 25.00000000 65.00000000 45.00000000
182 1 25.00000000 65.00000000 55.00000000
183 1 25.00000000 65.00000000 65.00000000
184 1 25.00000000 65.00000000 75.00000000
185 1 25.00000000 75.00000000 5.00000000
186 1 25.00000000 75.00000000 15.00000000
187 1 25.00000000 75.00000000 25.00000000
188 1 25.00000000 75.00000000 35.00000000
189 1 25.00000000 75.00000000 45.00000000
190 1 25.00000000 75.00000000 55.00000000
191 1 25.00000000 75.00000000 65.00000000
192 1 25.00000000 75.00000000 75.00000000
193 1 35.00000000 5.00000000 5.00000000
194 1 35.00000000 5.00000000 15.00000000
195 1 35.00000000 5.00000000 25.00000000
196 1 35.00000000 5.00000000 35.00000000
197 1 35.00000000 5.00000000 45.00000000
198 1 35.00000000 5.00000000 55.00000000
199 1 35.00000000 5.00000000 65.00000000
200 1 35.00000000 5.00000000 75.00000000
201 1 35.00000000 15.00000000 5.00000000
202 1 35.00000000 15.00000000 15.00000000
203 1 35.00000000 15.00000000 25.00000000
204 1 35.00000000 15.00000000 35.00000000
205 1 35.00000000 15.00000000 45.00000000
206 1 35.00000000 15.00000000 55.00000000
207 1 35.00000000 15.00000000 65.00000000
208 1 35.00000000 15.00000000 75.00000000
209 1 35.00000000 25.00000000 5.00000000
210 1 35.00000000 25.00000000 15.00000000
211 1 35.00000000 25.00000000 25.00000000
212 1 35.00000000 25.00000000 35.00000000
213 1 35.00000000 25.00000000 45.00000000
214 1 35.00000000 25.00000000 55.00000000
215 1 35.00000000 25.00000000 65.00000000
216 1 35.00000000 25.00000000 75.00000000
217 1 35.00000000 35.00000000 5.00000000
218 1 35.00000000 35.00000000 15.00000000
219 1 35.00000000 35.00000000 25.00000000
220 1 35.00000000 35.00000000 35.00000000
221 1 35.00000000 35.00000000 45.00000000
222 1 35.00000000 35.00000000 55.00000000
223 1 35.00000000 35.00000000 65.00000000
224 1 35.00000000 35.00000000 75.00000000
225 1 35.00000000 45.00000000 5.00000000
226 1 35.00000000 45.00000000 15.00000000
227 1 35.00000000 45.00000000 25.00000000
228 1 35.00000000 45.00000000 35.00000000
229 1 35.00000000 45.00000000 45.00000000
230 1 35.00000000 45.00000000 55.00000000
231 1 35.00000000 45.00000000 65.00000000
232 1 35.00000000 45.00000000 75.00000000
233 1 35.00000000 55.00000000 5.00000000
234 1 35.00000000 55.00000000 15.00000000
235 1 35.00000000 55.00000000 25.00000000
236 1 35.00000000 55.00000000 35.00000000
237 1 35.00000000 55.00000000 45.00000000
238 1 35.00000000 55.00000000 55.00000000
239 1 35.00000000 55.00000000 65.00000000
240 1 35.00000000 55.00000000 75.00000000
241 1 35.00000000 65.00000000 5.00000000
242 1 35.00000000 65.00000000 15.00000000
243 1 35.00000000 65.00000000 25.00000000
244 1 35.00000000 65.00000000 35.00000000
245 1 35.00000000 65.00000000 45.00000000
246 1 35.00000000 65.00000000 55.00000000
247 1 35.00000000 65.00000000 65.00000000
248 1 35.00000000 65.00000000 75.00000000
249 1 35.00000000 75.00000000 5.00000000
250 1 35.00000000 75.00000000 15.00000000
251 1 35.00000000 75.00000000 25.00000000
252 1 35.00000000 75.00000000 35.00000000
253 1 35.00000000 75.00000000 45.00000000
254 1 35.00000000 75.00000000 55.00000000
255 1 35.00000000 75.00000000 65.00000000
256 1 35.00000000 75.00000000 75.00000000
257 2 45.00000000 5.00000000 5.00000000
258 2 45.00000000 5.00000000 15.00000000
259 2 45.00000000 5.00000000 25.00000000
260 2 45.00000000 5.00000000 35.00000000
261 2 45.00000000 5.00000000 45.00000000
262 2 45.00000000 5.00000000 55.00000000
263 2 45.00000000 5.00000000 65.00000000
264 2 45.00000000 5.00000000 75.00000000
265 2 45.00000000 15.00000000 5.00000000
266 2 45.00000000 15.00000000 15.00000000
267 2 45.00000000 15.00000000 25.00000000
268 2 45.00000000 15.00000000 35.00000000
269 2 45.00000000 15.00000000 45.00000000
270 2 45.00000000 15.00000000 55.00000000
271 2 45.00000000 15.00000000 65.00000000
272 2 45.00000000 15.00000000 75.00000000
273 2 45.00000000 25.00000000 5.00000000
274 2 45.00000000 25.00000000 15.00000000
275 2 45.00000000 25.00000000 25.00000000
276 2 45.00000000 25.00000000 35.00000000
277 2 45.00000000 25.00000000 45.00000000
278 2 45.00000000 25.00000000 55.00000000
279 2 45.00000000 25.00000000 65.00000000
280 2 45.00000000 25.00000000 75.00000000
281 2 45.00000000 35.00000000 5.00000000
282 2 45.00000000 35.00000000 15.00000000
283 2 45.00000000 35.00000000 25.00000000
284 2 45.00000000 35.00000000 35.00000000
285 2 45.00000000 35.00000000 45.00000000
286 2 45.00000000 35.00000000 55.00000000
287 2 45.00000000 35.00000000 65.00000000
288 2 45.00000000 35.00000000 75.00000000
289 2 45.00000000 45.00000000 5.00000000
290 2 45.00000000 45.00000000 15.00000000
291 2 45.00000000 45.00000000 25.00000000
292 2 45.00000000 45.00000000 35.00000000
293 2 45.00000000 45.00000000 45.00000000
294 2 45.00000000 45.00000000 55.00000000
295 2 45.00000000 45.00000000 65.00000000
296 2 45.00000000 45.00000000 75.00000000
297 2 45.00000000 55.00000000 5.00000000
298 2 45.00000000 55.00000000 15.00000000
299 2 45.00000000 55.00000000 25.00000000
300 2 45.00000000 55.00000000 35.00000000
301 2 45.00000000 55.00000000 45.00000000
302 2 45.00000000 55.00000000 55.00000000
303 2 45.00000000 55.00000000 65.00000000
304 2 45.00000000 55.00000000 75.00000000
305 2 45.00000000 65.00000000 5.00000000
306 2 45.00000000 65.00000000 15.00000000
307 2 45.00000000 65.00000000 25.00000000
308 2 45.00000000 65.00000000 35.00000000
309 2 45.00000000 65.00000000 45.00000000
310 2 45.00000000 65.00000000 55.00000000
311 2 45.00000000 65.00000000 65.00000000
312 2 45.00000000 65.00000000 75.00000000
313 2 45.00000000 75.00000000 5.00000000
314 2 45.00000000 75.00000000 15.00000000
315 2 45.00000000 75.00000000 25.00000000
316 2 45.00000000 75.00000000 35.00000000
317 2 45.00000000 75.00000000 45.00000000
318 2 45.00000000 75.00000000 55.00000000
319 2 45.00000000 75.00000000 65.00000000
320 2 45.00000000 75.00000000 75.00000000
321 2 55.00000000 5.00000000 5.00000000
322 2 55.00000000 5.00000000 15.00000000
323 2 55.00000000 5.00000000 25.00000000
324 2 55.00000000 5.00000000 35.00000000
325 2 55.00000000 5.00000000 45.00000000
326 2 55.00000000 5.00000000 55.00000000
327 2 55.00000000 5.00000000 65.00000000
328 2 55.00000000 5.00000000 75.00000000
329 2 55.00000000 15.00000000 5.00000000
330 2 55.00000000 15.00000000 15.00000000
331 2 55.00000000 15.00000000 25.00000000
332 2 55.00000000 15.00000000 35.00000000
333 2 55.00000000 15.00000000 45.00000000
334 2 55.00000000 15.00000000 55.00000000
335 2 55.00000000 15.00000000 65.00000000
336 2 55.00000000 15.00000000 75.00000000
337 2 55.00000000 25.00000000 5.00000000
338 2 55.00000000 25.00000000 15.00000000
339 2 55.00000000 25.00000000 25.00000000
340 2 55.00000000 25.00000000 35.00000000
341 2 55.00000000 25.00000000 45.00000000
342 2 55.00000000 25.00000000 55.00000000
343 2 55.00000000 25.00000000 65.00000000
344 2 55.00000000 25.00000000 75.00000000
345 2 55.00000000 35.00000000 5.00000000
346 2 55.00000000 35.00000000 15.00000000
347 2 55.00000000 35.00000000 25.00000000
348 2 55.00000000 35.00000000 35.00000000
349 2 55.00000000 35.00000000 45.00000000
350 2 55.00000000 35.00000000 55.00000000
351 2 55.00000000 35.00000000 65.00000000
352 2 55.00000000 35.00000000 75.00000000
353 2 55.00000000 45.00000000 5.00000000
354 2 55.00000000 45.00000000 15.00000000
355 2 55.00000000 45.00000000 25.00000000
356 2 55.00000000 45.00000000 35.00000000
357 2 55.00000000 45.00000000 45.00000000
358 2 55.00000000 45.00000000 55.00000000
359 2 55.00000000 45.00000000 65.00000000
360 2 55.00000000 45.00000000 75.00000000
361 2 55.00000000 55.00000000 5.00000000
362 2 55.00000000 55.00000000 15.00000000
363 2 55.00000000 55.00000000 25.00000000
364 2 55.00000000 55.00000000 35.00000000
365 2 55.00000000 55.00000000 45.00000000
366 2 55.00000000 55.00000000 55.00000000
367 2 55.00000000 55.00000000 65.00000000
368 2 55.00000000 55.00000000 75.00000000
369 2 55.00000000 65.00000000 5.00000000
370 2 55.00000000 65.00000000 15.00000000
371 2 55.00000000 65.00000000 25.00000000
372 2 55.00000000 65.00000000 35.00000000
373 2 55.00000000 65.00000000 45.00000000
374 2 55.00000000 65.00000000 55.00000000
375 2 55.00000000 65.00000000 65.00000000
376 2 55.00000000 65.00000000 75.00000000
377 2 55.00000000 75.00000000 5.00000000
378 2 55.00000000 75.00000000 15.00000000
379 2 55.00000000 75.00000000 25.00000000
380 2 55.00000000 75.00000000 35.00000000
381 2 55.00000000 75.00000000 45.00000000
382 2 55.00000000 75.00000000 55.00000000
383 2 55.00000000 75.00000000 65.00000000
384 2 55.00000000 75.00000000 75.00000000
385 2 65.00000000 5.00000000 5.00000000
386 2 65.00000000 5.00000000 15.00000000
387 2 65.00000000 5.00000000 25.00000000
388 2 65.00000000 5.00000000 35.00000000
389 2 65.00000000 5.00000000 45.00000000
390 2 65.00000000 5.00000000 55.00000000
391 2 65.00000000 5.00000000 65.00000000
392 2 65.00000000 5.00000000 75.00000000
393 2 65.00000000 15.00000000 5.00000000
394 2 65.00000000 15.00000000 15.00000000
395 2 65.00000000 15.00000000 25.00000000
396 2 65.00000000 15.00000000 35.00000000
397 2 65.00000000 15.00000000 45.00000000
398 2 65.00000000 15.00000000 55.00000000
399 2 65.00000000 15.00000000 65.00000000
400 2 65.00000000 15.00000000 75.00000000
401 2 65.00000000 25.00000000 5.00000000
402 2 65.00000000 25.00000000 15.00000000
403 2 65.00000000 25.00000000 25.00000000
404 2 65.00000000 25.00000000 35.00000000
405 2 65.00000000 25.00000000 45.00000000
406 2 65.00000000 25.00000000 55.00000000
407 2 65.00000000 25.00000000 65.00000000
408 2 65.00000000 25.00000000 75.00000000
409 2 65.00000000 35.00000000 5.00000000
410 2 65.00000000 35.00000000 15.00000000
411 2 65.00000000 35.00000000 25.00000000
412 2 65.00000000 35.00000000 35.00000000
413 2 65.00000000 35.00000000 45.00000000
414 2 65.00000000 35.00000000 55.00000000
415 2 65.00000000 35.00000000 65.00000000
416 2 65.00000000 35.00000000 75.00000000
417 2 65.00000000 45.00000000 5.00000000
418 2 65.00000000 45.00000000 15.00000000
419 2 65.00000000 45.00000000 25.00000000
420 2 65.00000000 45.00000000 35.00000000
421 2 65.00000000 45.00000000 45.00000000
422 2 65.00000000 45.00000000 55.00000000
423 2 65.00000000 45.00000000 65.00000000
424 2 65.00000000 45.00000000 75.00000000
425 2 65.00000000 55.00000000 5.00000000
426 2 65.00000000 55.00000000 15.00000000
427 2 65.00000000 55.00000000 25.00000000
428 2 65.00000000 55.00000000 35.00000000
429 2 65.00000000 55.00000000 45.00000000
430 2 65.00000000 55.00000000 55.00000000
431 2 65.00000000 55.00000000 65.00000000
432 2 65.00000000 55.00000000 75.00000000
433 2 65.00000000 65.00000000 5.00000000
434 2 65.00000000 65.00000000 15.00000000
435 2 65.00000000 65.00000000 25.00000000
436 2 65.00000000 65.00000000 35.00000000
437 2 65.00000000 65.00000000 45.00000000
438 2 65.00000000 65.00000000 55.00000000
439 2 65.00000000 65.00000000 65.00000000
440 2 65.00000000 65.00000000 75.00000000
441 2 65.00000000 75.00000000 5.00000000
442 2 65.00000000 75.00000000 15.00000000
443 2 65.00000000 75.00000000 25.00000000
444 2 65.00000000 75.00000000 35.00000000
445 2 65.00000000 75.00000000 45.00000000
446 2 65.00000000 75.00000000 55.00000000
447 2 65.00000000 75.00000000 65.00000000
448 2 65.00000000 75.00000000 75.00000000
449 2 75.00000000 5.00000000 5.00000000
450 2 75.00000000 5.00000000 15.00000000
451 2 75.00000000 5.00000000 25.00000000
452 2 75.00000000 5.00000000 35.00000000
453 2 75.00000000 5.00000000 45.00000000
454 2 75.00000000 5.00000000 55.00000000
455 2 75.00000000 5.00000000 65.00000000
456 2 75.00000000 5.00000000 75.00000000
457 2 75.00000000 15.00000000 5.00000000
458 2 75.00000000 15.00000000 15.00000000
459 2 75.00000000 15.00000000 25.00000000
460 2 75.00000000 15.00000000 35.00000000
461 2 75.00000000 15.00000000 45.00000000
462 2 75.00000000 15.00000000 55.00000000
463 2 75.00000000 15.00000000 65.00000000
464 2 75.00000000 15.00000000 75.00000000
465 2 75.00000000 25.00000000 5.00000000
466 2 75.00000000 25.00000000 15.00000000
467 2 75.00000000 25.00000000 25.00000000
468 2 75.00000000 25.00000000 35.00000000
469 2 75.00000000 25.00000000 45.00000000
470 2 75.00000000 25.00000000 55.00000000
471 2 75.00000000 25.00000000 65.00000000
472 2 75.00000000 25.00000000 75.00000000
473 2 75.00000000 35.00000000 5.00000000
474 2 75.00000000 35.00000000 15.00000000
475 2 75.00000000 35.00000000 25.00000000
476 2 75.00000000 35.00000000 35.00000000
477 2 75.00000000 35.00000000 45.00000000
478 2 75.00000000 35.00000000 55.00000000
479 2 75.00000000 35.00000000 65.00000000
480 2 75.00000000 35.00000000 75.00000000
481 2 75.00000000 45.00000000 5.00000000
482 2 75.00000000 45.00000000 15.00000000
483 2 75.00000000 45.00000000 25.00000000
484 2 75.00000000 45.00000000 35.00000000
485 2 75.00000000 45.00000000 45.00000000
486 2 75.00000000 45.00000000 55.00000000
487 2 75.00000000 45.00000000 65.00000000
488 2 75.00000000 45.00000000 75.00000000
489 2 75.00000000 55.00000000 5.00000000
490 2 75.00000000 55.00000000 15.00000000
491 2 75.00000000 55.00000000 25.00000000
492 2 75.00000000 55.00000000 35.00000000
493 2 75.00000000 55.00000000 45.00000000
494 2 75.00000000 55.00000000 55.00000000
495 2 75.00000000 55.00000000 65.00000000
496 2 75.00000000 55.00000000 75.00000000
497 2 75.00000000 65.00000000 5.00000000
498 2 75.00000000 65.00000000 15.00000000
499 2 75.00000000 65.00000000 25.00000000
500 2 75.00000000 65.00000000 35.00000000
501 2 75.00000000 65.00000000 45.00000000
502 2 75.00000000 65.00000000 55.00000000
503 2 75.00000000 65.00000000 65.00000000
504 2 75.00000000 65.00000000 75.00000000
505 2 75.00000000 75.00000000 5.00000000
506 2 75.00000000 75.00000000 15.00000000
507 2 75.00000000 75.00000000 25.00000000
508 2 75.00000000 75.00000000 35.00000000
509 2 75.00000000 75.00000000 45.00000000
510 2 75.00000000 75.00000000 55.00000000
511 2 75.00000000 75.00000000 65.00000000
512 2 75.00000000 75.00000000 75.00000000
