LAMMPS (28 Mar 2023 - Update 1)
units lj
dimension 3
atom_style atomic
boundary p p p
log log_equilibration.dat
