LAMMPS Simulation Data
452 atoms
3 atom types

0 12.69 xlo xhi 
0 12.69 ylo yhi 
0 12.69 zlo zhi 

Masses

1 1.0
2 1.0
3 1.0

Atoms

1 1 0.79312500 0.79312500 0.79312500
2 1 0.79312500 0.79312500 2.37937500
3 1 0.79312500 0.79312500 3.96562500
4 1 0.79312500 0.79312500 5.55187500
5 1 0.79312500 0.79312500 7.13812500
6 1 0.79312500 0.79312500 8.72437500
7 1 0.79312500 0.79312500 10.31062500
8 1 0.79312500 0.79312500 11.89687500
9 1 0.79312500 2.37937500 0.79312500
10 1 0.79312500 2.37937500 2.37937500
11 1 0.79312500 2.37937500 3.96562500
12 1 0.79312500 2.37937500 5.55187500
13 1 0.79312500 2.37937500 7.13812500
14 1 0.79312500 2.37937500 8.72437500
15 1 0.79312500 2.37937500 10.31062500
16 1 0.79312500 2.37937500 11.89687500
17 1 0.79312500 3.96562500 0.79312500
18 1 0.79312500 3.96562500 2.37937500
19 1 0.79312500 3.96562500 3.96562500
20 1 0.79312500 3.96562500 5.55187500
21 1 0.79312500 3.96562500 7.13812500
22 1 0.79312500 3.96562500 8.72437500
23 1 0.79312500 3.96562500 10.31062500
24 1 0.79312500 3.96562500 11.89687500
25 1 0.79312500 5.55187500 0.79312500
26 1 0.79312500 5.55187500 2.37937500
27 1 0.79312500 5.55187500 3.96562500
28 1 0.79312500 5.55187500 5.55187500
29 1 0.79312500 5.55187500 7.13812500
30 1 0.79312500 5.55187500 8.72437500
31 1 0.79312500 5.55187500 10.31062500
32 1 0.79312500 5.55187500 11.89687500
33 1 0.79312500 7.13812500 0.79312500
34 1 0.79312500 7.13812500 2.37937500
35 1 0.79312500 7.13812500 3.96562500
36 1 0.79312500 7.13812500 5.55187500
37 1 0.79312500 7.13812500 7.13812500
38 1 0.79312500 7.13812500 8.72437500
39 1 0.79312500 7.13812500 10.31062500
40 1 0.79312500 7.13812500 11.89687500
41 1 0.79312500 8.72437500 0.79312500
42 1 0.79312500 8.72437500 2.37937500
43 1 0.79312500 8.72437500 3.96562500
44 1 0.79312500 8.72437500 5.55187500
45 1 0.79312500 8.72437500 7.13812500
46 1 0.79312500 8.72437500 8.72437500
47 1 0.79312500 8.72437500 10.31062500
48 1 0.79312500 8.72437500 11.89687500
49 1 0.79312500 10.31062500 0.79312500
50 1 0.79312500 10.31062500 2.37937500
51 1 0.79312500 10.31062500 3.96562500
52 1 0.79312500 10.31062500 5.55187500
53 1 0.79312500 10.31062500 7.13812500
54 1 0.79312500 10.31062500 8.72437500
55 1 0.79312500 10.31062500 10.31062500
56 1 0.79312500 10.31062500 11.89687500
57 1 0.79312500 11.89687500 0.79312500
58 1 0.79312500 11.89687500 2.37937500
59 1 0.79312500 11.89687500 3.96562500
60 1 0.79312500 11.89687500 5.55187500
61 1 0.79312500 11.89687500 7.13812500
62 1 0.79312500 11.89687500 8.72437500
63 1 0.79312500 11.89687500 10.31062500
64 1 0.79312500 11.89687500 11.89687500
65 1 2.37937500 0.79312500 0.79312500
66 1 2.37937500 0.79312500 2.37937500
67 1 2.37937500 0.79312500 3.96562500
68 1 2.37937500 0.79312500 5.55187500
69 1 2.37937500 0.79312500 7.13812500
70 1 2.37937500 0.79312500 8.72437500
71 1 2.37937500 0.79312500 10.31062500
72 1 2.37937500 0.79312500 11.89687500
73 1 2.37937500 2.37937500 0.79312500
74 1 2.37937500 2.37937500 2.37937500
75 1 2.37937500 2.37937500 3.96562500
76 1 2.37937500 2.37937500 5.55187500
77 1 2.37937500 2.37937500 7.13812500
78 1 2.37937500 2.37937500 8.72437500
79 1 2.37937500 2.37937500 10.31062500
80 1 2.37937500 2.37937500 11.89687500
81 1 2.37937500 3.96562500 0.79312500
82 1 2.37937500 3.96562500 2.37937500
83 1 2.37937500 3.96562500 3.96562500
84 1 2.37937500 3.96562500 5.55187500
85 1 2.37937500 3.96562500 7.13812500
86 1 2.37937500 3.96562500 8.72437500
87 1 2.37937500 3.96562500 10.31062500
88 1 2.37937500 3.96562500 11.89687500
89 1 2.37937500 5.55187500 0.79312500
90 1 2.37937500 5.55187500 2.37937500
91 1 2.37937500 5.55187500 3.96562500
92 1 2.37937500 5.55187500 5.55187500
93 1 2.37937500 5.55187500 7.13812500
94 1 2.37937500 5.55187500 8.72437500
95 1 2.37937500 5.55187500 10.31062500
96 1 2.37937500 5.55187500 11.89687500
97 1 2.37937500 7.13812500 0.79312500
98 1 2.37937500 7.13812500 2.37937500
99 1 2.37937500 7.13812500 3.96562500
100 1 2.37937500 7.13812500 5.55187500
101 1 2.37937500 7.13812500 7.13812500
102 1 2.37937500 7.13812500 8.72437500
103 1 2.37937500 7.13812500 10.31062500
104 1 2.37937500 7.13812500 11.89687500
105 1 2.37937500 8.72437500 0.79312500
106 1 2.37937500 8.72437500 2.37937500
107 1 2.37937500 8.72437500 3.96562500
108 1 2.37937500 8.72437500 5.55187500
109 1 2.37937500 8.72437500 7.13812500
110 1 2.37937500 8.72437500 8.72437500
111 1 2.37937500 8.72437500 10.31062500
112 1 2.37937500 8.72437500 11.89687500
113 1 2.37937500 10.31062500 0.79312500
114 1 2.37937500 10.31062500 2.37937500
115 1 2.37937500 10.31062500 3.96562500
116 1 2.37937500 10.31062500 5.55187500
117 1 2.37937500 10.31062500 7.13812500
118 1 2.37937500 10.31062500 8.72437500
119 1 2.37937500 10.31062500 10.31062500
120 1 2.37937500 10.31062500 11.89687500
121 1 2.37937500 11.89687500 0.79312500
122 1 2.37937500 11.89687500 2.37937500
123 1 2.37937500 11.89687500 3.96562500
124 1 2.37937500 11.89687500 5.55187500
125 1 2.37937500 11.89687500 7.13812500
126 1 2.37937500 11.89687500 8.72437500
127 1 2.37937500 11.89687500 10.31062500
128 1 2.37937500 11.89687500 11.89687500
129 1 3.96562500 0.79312500 0.79312500
130 1 3.96562500 0.79312500 2.37937500
131 1 3.96562500 0.79312500 3.96562500
132 1 3.96562500 0.79312500 5.55187500
133 1 3.96562500 0.79312500 7.13812500
134 1 3.96562500 0.79312500 8.72437500
135 1 3.96562500 0.79312500 10.31062500
136 1 3.96562500 0.79312500 11.89687500
137 1 3.96562500 2.37937500 0.79312500
138 1 3.96562500 2.37937500 2.37937500
139 1 3.96562500 2.37937500 3.96562500
140 1 3.96562500 2.37937500 5.55187500
141 1 3.96562500 2.37937500 7.13812500
142 1 3.96562500 2.37937500 8.72437500
143 1 3.96562500 2.37937500 10.31062500
144 1 3.96562500 2.37937500 11.89687500
145 1 3.96562500 3.96562500 0.79312500
146 1 3.96562500 3.96562500 2.37937500
147 1 3.96562500 3.96562500 3.96562500
148 1 3.96562500 3.96562500 5.55187500
149 1 3.96562500 3.96562500 7.13812500
150 1 3.96562500 3.96562500 8.72437500
151 1 3.96562500 3.96562500 10.31062500
152 1 3.96562500 3.96562500 11.89687500
153 1 3.96562500 5.55187500 0.79312500
154 1 3.96562500 5.55187500 2.37937500
155 1 3.96562500 5.55187500 3.96562500
156 1 3.96562500 5.55187500 5.55187500
157 1 3.96562500 5.55187500 7.13812500
158 1 3.96562500 5.55187500 8.72437500
159 1 3.96562500 5.55187500 10.31062500
160 1 3.96562500 5.55187500 11.89687500
161 1 3.96562500 7.13812500 0.79312500
162 1 3.96562500 7.13812500 2.37937500
163 1 3.96562500 7.13812500 3.96562500
164 1 3.96562500 7.13812500 5.55187500
165 1 3.96562500 7.13812500 7.13812500
166 1 3.96562500 7.13812500 8.72437500
167 1 3.96562500 7.13812500 10.31062500
168 1 3.96562500 7.13812500 11.89687500
169 1 3.96562500 8.72437500 0.79312500
170 1 3.96562500 8.72437500 2.37937500
171 1 3.96562500 8.72437500 3.96562500
172 1 3.96562500 8.72437500 5.55187500
173 1 3.96562500 8.72437500 7.13812500
174 1 3.96562500 8.72437500 8.72437500
175 1 3.96562500 8.72437500 10.31062500
176 1 3.96562500 8.72437500 11.89687500
177 1 3.96562500 10.31062500 0.79312500
178 1 3.96562500 10.31062500 2.37937500
179 1 3.96562500 10.31062500 3.96562500
180 1 3.96562500 10.31062500 5.55187500
181 1 3.96562500 10.31062500 7.13812500
182 1 3.96562500 10.31062500 8.72437500
183 1 3.96562500 10.31062500 10.31062500
184 1 3.96562500 10.31062500 11.89687500
185 1 3.96562500 11.89687500 0.79312500
186 1 3.96562500 11.89687500 2.37937500
187 1 3.96562500 11.89687500 3.96562500
188 1 3.96562500 11.89687500 5.55187500
189 1 3.96562500 11.89687500 7.13812500
190 1 3.96562500 11.89687500 8.72437500
191 1 3.96562500 11.89687500 10.31062500
192 1 3.96562500 11.89687500 11.89687500
193 1 5.55187500 0.79312500 0.79312500
194 1 5.55187500 0.79312500 2.37937500
195 1 5.55187500 0.79312500 3.96562500
196 1 5.55187500 0.79312500 5.55187500
197 1 5.55187500 0.79312500 7.13812500
198 1 5.55187500 0.79312500 8.72437500
199 1 5.55187500 0.79312500 10.31062500
200 1 5.55187500 0.79312500 11.89687500
201 1 5.55187500 2.37937500 0.79312500
202 1 5.55187500 2.37937500 2.37937500
203 1 5.55187500 2.37937500 3.96562500
204 1 5.55187500 2.37937500 5.55187500
205 1 5.55187500 2.37937500 7.13812500
206 1 5.55187500 2.37937500 8.72437500
207 1 5.55187500 2.37937500 10.31062500
208 1 5.55187500 2.37937500 11.89687500
209 1 5.55187500 3.96562500 0.79312500
210 1 5.55187500 3.96562500 2.37937500
211 1 5.55187500 3.96562500 3.96562500
212 1 5.55187500 3.96562500 5.55187500
213 1 5.55187500 3.96562500 7.13812500
214 1 5.55187500 3.96562500 8.72437500
215 1 5.55187500 3.96562500 10.31062500
216 1 5.55187500 3.96562500 11.89687500
217 1 5.55187500 5.55187500 0.79312500
218 1 5.55187500 5.55187500 2.37937500
219 1 5.55187500 5.55187500 3.96562500
220 1 5.55187500 5.55187500 5.55187500
221 1 5.55187500 5.55187500 7.13812500
222 1 5.55187500 5.55187500 8.72437500
223 1 5.55187500 5.55187500 10.31062500
224 1 5.55187500 5.55187500 11.89687500
225 1 5.55187500 7.13812500 0.79312500
226 1 5.55187500 7.13812500 2.37937500
227 1 5.55187500 7.13812500 3.96562500
228 1 5.55187500 7.13812500 5.55187500
229 1 5.55187500 7.13812500 7.13812500
230 1 5.55187500 7.13812500 8.72437500
231 1 5.55187500 7.13812500 10.31062500
232 1 5.55187500 7.13812500 11.89687500
233 1 5.55187500 8.72437500 0.79312500
234 1 5.55187500 8.72437500 2.37937500
235 1 5.55187500 8.72437500 3.96562500
236 1 5.55187500 8.72437500 5.55187500
237 1 5.55187500 8.72437500 7.13812500
238 1 5.55187500 8.72437500 8.72437500
239 1 5.55187500 8.72437500 10.31062500
240 1 5.55187500 8.72437500 11.89687500
241 1 5.55187500 10.31062500 0.79312500
242 1 5.55187500 10.31062500 2.37937500
243 1 5.55187500 10.31062500 3.96562500
244 1 5.55187500 10.31062500 5.55187500
245 1 5.55187500 10.31062500 7.13812500
246 1 5.55187500 10.31062500 8.72437500
247 1 5.55187500 10.31062500 10.31062500
248 1 5.55187500 10.31062500 11.89687500
249 1 5.55187500 11.89687500 0.79312500
250 1 5.55187500 11.89687500 2.37937500
251 1 5.55187500 11.89687500 3.96562500
252 1 5.55187500 11.89687500 5.55187500
253 1 5.55187500 11.89687500 7.13812500
254 1 5.55187500 11.89687500 8.72437500
255 1 5.55187500 11.89687500 10.31062500
256 1 5.55187500 11.89687500 11.89687500
257 1 7.13812500 0.79312500 0.79312500
258 1 7.13812500 0.79312500 2.37937500
259 1 7.13812500 0.79312500 3.96562500
260 1 7.13812500 0.79312500 5.55187500
261 1 7.13812500 0.79312500 7.13812500
262 1 7.13812500 0.79312500 8.72437500
263 1 7.13812500 0.79312500 10.31062500
264 1 7.13812500 0.79312500 11.89687500
265 1 7.13812500 2.37937500 0.79312500
266 1 7.13812500 2.37937500 2.37937500
267 1 7.13812500 2.37937500 3.96562500
268 1 7.13812500 2.37937500 5.55187500
269 1 7.13812500 2.37937500 7.13812500
270 1 7.13812500 2.37937500 8.72437500
271 1 7.13812500 2.37937500 10.31062500
272 1 7.13812500 2.37937500 11.89687500
273 1 7.13812500 3.96562500 0.79312500
274 1 7.13812500 3.96562500 2.37937500
275 1 7.13812500 3.96562500 3.96562500
276 1 7.13812500 3.96562500 5.55187500
277 1 7.13812500 3.96562500 7.13812500
278 1 7.13812500 3.96562500 8.72437500
279 1 7.13812500 3.96562500 10.31062500
280 1 7.13812500 3.96562500 11.89687500
281 1 7.13812500 5.55187500 0.79312500
282 1 7.13812500 5.55187500 2.37937500
283 1 7.13812500 5.55187500 3.96562500
284 1 7.13812500 5.55187500 5.55187500
285 1 7.13812500 5.55187500 7.13812500
286 1 7.13812500 5.55187500 8.72437500
287 1 7.13812500 5.55187500 10.31062500
288 1 7.13812500 5.55187500 11.89687500
289 1 7.13812500 7.13812500 0.79312500
290 1 7.13812500 7.13812500 2.37937500
291 1 7.13812500 7.13812500 3.96562500
292 1 7.13812500 7.13812500 5.55187500
293 1 7.13812500 7.13812500 7.13812500
294 1 7.13812500 7.13812500 8.72437500
295 1 7.13812500 7.13812500 10.31062500
296 1 7.13812500 7.13812500 11.89687500
297 1 7.13812500 8.72437500 0.79312500
298 1 7.13812500 8.72437500 2.37937500
299 1 7.13812500 8.72437500 3.96562500
300 1 7.13812500 8.72437500 5.55187500
301 1 7.13812500 8.72437500 7.13812500
302 1 7.13812500 8.72437500 8.72437500
303 1 7.13812500 8.72437500 10.31062500
304 1 7.13812500 8.72437500 11.89687500
305 1 7.13812500 10.31062500 0.79312500
306 1 7.13812500 10.31062500 2.37937500
307 1 7.13812500 10.31062500 3.96562500
308 1 7.13812500 10.31062500 5.55187500
309 1 7.13812500 10.31062500 7.13812500
310 1 7.13812500 10.31062500 8.72437500
311 1 7.13812500 10.31062500 10.31062500
312 1 7.13812500 10.31062500 11.89687500
313 1 7.13812500 11.89687500 0.79312500
314 1 7.13812500 11.89687500 2.37937500
315 1 7.13812500 11.89687500 3.96562500
316 1 7.13812500 11.89687500 5.55187500
317 1 7.13812500 11.89687500 7.13812500
318 1 7.13812500 11.89687500 8.72437500
319 1 7.13812500 11.89687500 10.31062500
320 1 7.13812500 11.89687500 11.89687500
321 1 8.72437500 0.79312500 0.79312500
322 1 8.72437500 0.79312500 2.37937500
323 1 8.72437500 0.79312500 3.96562500
324 1 8.72437500 0.79312500 5.55187500
325 1 8.72437500 0.79312500 7.13812500
326 1 8.72437500 0.79312500 8.72437500
327 1 8.72437500 0.79312500 10.31062500
328 1 8.72437500 0.79312500 11.89687500
329 1 8.72437500 2.37937500 0.79312500
330 1 8.72437500 2.37937500 2.37937500
331 1 8.72437500 2.37937500 3.96562500
332 1 8.72437500 2.37937500 5.55187500
333 1 8.72437500 2.37937500 7.13812500
334 1 8.72437500 2.37937500 8.72437500
335 1 8.72437500 2.37937500 10.31062500
336 1 8.72437500 2.37937500 11.89687500
337 1 8.72437500 3.96562500 0.79312500
338 1 8.72437500 3.96562500 2.37937500
339 1 8.72437500 3.96562500 3.96562500
340 1 8.72437500 3.96562500 5.55187500
341 1 8.72437500 3.96562500 7.13812500
342 1 8.72437500 3.96562500 8.72437500
343 1 8.72437500 3.96562500 10.31062500
344 1 8.72437500 3.96562500 11.89687500
345 1 8.72437500 5.55187500 0.79312500
346 1 8.72437500 5.55187500 2.37937500
347 1 8.72437500 5.55187500 3.96562500
348 1 8.72437500 5.55187500 5.55187500
349 1 8.72437500 5.55187500 7.13812500
350 1 8.72437500 5.55187500 8.72437500
351 1 8.72437500 5.55187500 10.31062500
352 1 8.72437500 5.55187500 11.89687500
353 1 8.72437500 7.13812500 0.79312500
354 1 8.72437500 7.13812500 2.37937500
355 1 8.72437500 7.13812500 3.96562500
356 1 8.72437500 7.13812500 5.55187500
357 1 8.72437500 7.13812500 7.13812500
358 1 8.72437500 7.13812500 8.72437500
359 1 8.72437500 7.13812500 10.31062500
360 1 8.72437500 7.13812500 11.89687500
361 1 8.72437500 8.72437500 0.79312500
362 1 8.72437500 8.72437500 2.37937500
363 1 8.72437500 8.72437500 3.96562500
364 1 8.72437500 8.72437500 5.55187500
365 1 8.72437500 8.72437500 7.13812500
366 1 8.72437500 8.72437500 8.72437500
367 1 8.72437500 8.72437500 10.31062500
368 1 8.72437500 8.72437500 11.89687500
369 1 8.72437500 10.31062500 0.79312500
370 1 8.72437500 10.31062500 2.37937500
371 1 8.72437500 10.31062500 3.96562500
372 1 8.72437500 10.31062500 5.55187500
373 1 8.72437500 10.31062500 7.13812500
374 1 8.72437500 10.31062500 8.72437500
375 1 8.72437500 10.31062500 10.31062500
376 1 8.72437500 10.31062500 11.89687500
377 1 8.72437500 11.89687500 0.79312500
378 1 8.72437500 11.89687500 2.37937500
379 1 8.72437500 11.89687500 3.96562500
380 1 8.72437500 11.89687500 5.55187500
381 1 8.72437500 11.89687500 7.13812500
382 1 8.72437500 11.89687500 8.72437500
383 1 8.72437500 11.89687500 10.31062500
384 1 8.72437500 11.89687500 11.89687500
385 1 10.31062500 0.79312500 0.79312500
386 1 10.31062500 0.79312500 2.37937500
387 1 10.31062500 0.79312500 3.96562500
388 1 10.31062500 0.79312500 5.55187500
389 1 10.31062500 0.79312500 7.13812500
390 1 10.31062500 0.79312500 8.72437500
391 1 10.31062500 0.79312500 10.31062500
392 1 10.31062500 0.79312500 11.89687500
393 1 10.31062500 2.37937500 0.79312500
394 1 10.31062500 2.37937500 2.37937500
395 1 10.31062500 2.37937500 3.96562500
396 1 10.31062500 2.37937500 5.55187500
397 1 10.31062500 2.37937500 7.13812500
398 1 10.31062500 2.37937500 8.72437500
399 1 10.31062500 2.37937500 10.31062500
400 1 10.31062500 2.37937500 11.89687500
401 2 10.31062500 3.96562500 0.79312500
402 2 10.31062500 3.96562500 2.37937500
403 2 10.31062500 3.96562500 3.96562500
404 2 10.31062500 3.96562500 5.55187500
405 2 10.31062500 3.96562500 7.13812500
406 2 10.31062500 3.96562500 8.72437500
407 2 10.31062500 3.96562500 10.31062500
408 2 10.31062500 3.96562500 11.89687500
409 2 10.31062500 5.55187500 0.79312500
410 2 10.31062500 5.55187500 2.37937500
411 2 10.31062500 5.55187500 3.96562500
412 2 10.31062500 5.55187500 5.55187500
413 2 10.31062500 5.55187500 7.13812500
414 2 10.31062500 5.55187500 8.72437500
415 2 10.31062500 5.55187500 10.31062500
416 2 10.31062500 5.55187500 11.89687500
417 2 10.31062500 7.13812500 0.79312500
418 2 10.31062500 7.13812500 2.37937500
419 2 10.31062500 7.13812500 3.96562500
420 2 10.31062500 7.13812500 5.55187500
421 2 10.31062500 7.13812500 7.13812500
422 2 10.31062500 7.13812500 8.72437500
423 2 10.31062500 7.13812500 10.31062500
424 2 10.31062500 7.13812500 11.89687500
425 2 10.31062500 8.72437500 0.79312500
426 2 10.31062500 8.72437500 2.37937500
427 3 10.31062500 8.72437500 3.96562500
428 3 10.31062500 8.72437500 5.55187500
429 3 10.31062500 8.72437500 7.13812500
430 3 10.31062500 8.72437500 8.72437500
431 3 10.31062500 8.72437500 10.31062500
432 3 10.31062500 8.72437500 11.89687500
433 3 10.31062500 10.31062500 0.79312500
434 3 10.31062500 10.31062500 2.37937500
435 3 10.31062500 10.31062500 3.96562500
436 3 10.31062500 10.31062500 5.55187500
437 3 10.31062500 10.31062500 7.13812500
438 3 10.31062500 10.31062500 8.72437500
439 3 10.31062500 10.31062500 10.31062500
440 3 10.31062500 10.31062500 11.89687500
441 3 10.31062500 11.89687500 0.79312500
442 3 10.31062500 11.89687500 2.37937500
443 3 10.31062500 11.89687500 3.96562500
444 3 10.31062500 11.89687500 5.55187500
445 3 10.31062500 11.89687500 7.13812500
446 3 10.31062500 11.89687500 8.72437500
447 3 10.31062500 11.89687500 10.31062500
448 3 10.31062500 11.89687500 11.89687500
449 3 11.89687500 0.79312500 0.79312500
450 3 11.89687500 0.79312500 2.37937500
451 3 11.89687500 0.79312500 3.96562500
452 3 11.89687500 0.79312500 5.55187500
