LAMMPS Simulation Data
5832 atoms
2 atom types

0 41.774299502515 xlo xhi 
0 41.774299502515 ylo yhi 
0 41.774299502515 zlo zhi 

Masses

1 1.0
2 1.0

Atoms

1 1 1.16039721 1.16039721 1.16039721
2 1 1.16039721 1.16039721 3.48119163
3 1 1.16039721 1.16039721 5.80198604
4 1 1.16039721 1.16039721 8.12278046
5 1 1.16039721 1.16039721 10.44357488
6 1 1.16039721 1.16039721 12.76436929
7 1 1.16039721 1.16039721 15.08516371
8 1 1.16039721 1.16039721 17.40595813
9 1 1.16039721 1.16039721 19.72675254
10 1 1.16039721 1.16039721 22.04754696
11 1 1.16039721 1.16039721 24.36834138
12 1 1.16039721 1.16039721 26.68913579
13 1 1.16039721 1.16039721 29.00993021
14 1 1.16039721 1.16039721 31.33072463
15 1 1.16039721 1.16039721 33.65151904
16 1 1.16039721 1.16039721 35.97231346
17 1 1.16039721 1.16039721 38.29310788
18 1 1.16039721 1.16039721 40.61390229
19 1 1.16039721 3.48119163 1.16039721
20 1 1.16039721 3.48119163 3.48119163
21 1 1.16039721 3.48119163 5.80198604
22 1 1.16039721 3.48119163 8.12278046
23 1 1.16039721 3.48119163 10.44357488
24 1 1.16039721 3.48119163 12.76436929
25 1 1.16039721 3.48119163 15.08516371
26 1 1.16039721 3.48119163 17.40595813
27 1 1.16039721 3.48119163 19.72675254
28 1 1.16039721 3.48119163 22.04754696
29 1 1.16039721 3.48119163 24.36834138
30 1 1.16039721 3.48119163 26.68913579
31 1 1.16039721 3.48119163 29.00993021
32 1 1.16039721 3.48119163 31.33072463
33 1 1.16039721 3.48119163 33.65151904
34 1 1.16039721 3.48119163 35.97231346
35 1 1.16039721 3.48119163 38.29310788
36 1 1.16039721 3.48119163 40.61390229
37 1 1.16039721 5.80198604 1.16039721
38 1 1.16039721 5.80198604 3.48119163
39 1 1.16039721 5.80198604 5.80198604
40 1 1.16039721 5.80198604 8.12278046
41 1 1.16039721 5.80198604 10.44357488
42 1 1.16039721 5.80198604 12.76436929
43 1 1.16039721 5.80198604 15.08516371
44 1 1.16039721 5.80198604 17.40595813
45 1 1.16039721 5.80198604 19.72675254
46 1 1.16039721 5.80198604 22.04754696
47 1 1.16039721 5.80198604 24.36834138
48 1 1.16039721 5.80198604 26.68913579
49 1 1.16039721 5.80198604 29.00993021
50 1 1.16039721 5.80198604 31.33072463
51 1 1.16039721 5.80198604 33.65151904
52 1 1.16039721 5.80198604 35.97231346
53 1 1.16039721 5.80198604 38.29310788
54 1 1.16039721 5.80198604 40.61390229
55 1 1.16039721 8.12278046 1.16039721
56 1 1.16039721 8.12278046 3.48119163
57 1 1.16039721 8.12278046 5.80198604
58 1 1.16039721 8.12278046 8.12278046
59 1 1.16039721 8.12278046 10.44357488
60 1 1.16039721 8.12278046 12.76436929
61 1 1.16039721 8.12278046 15.08516371
62 1 1.16039721 8.12278046 17.40595813
63 1 1.16039721 8.12278046 19.72675254
64 1 1.16039721 8.12278046 22.04754696
65 1 1.16039721 8.12278046 24.36834138
66 1 1.16039721 8.12278046 26.68913579
67 1 1.16039721 8.12278046 29.00993021
68 1 1.16039721 8.12278046 31.33072463
69 1 1.16039721 8.12278046 33.65151904
70 1 1.16039721 8.12278046 35.97231346
71 1 1.16039721 8.12278046 38.29310788
72 1 1.16039721 8.12278046 40.61390229
73 1 1.16039721 10.44357488 1.16039721
74 1 1.16039721 10.44357488 3.48119163
75 1 1.16039721 10.44357488 5.80198604
76 1 1.16039721 10.44357488 8.12278046
77 1 1.16039721 10.44357488 10.44357488
78 1 1.16039721 10.44357488 12.76436929
79 1 1.16039721 10.44357488 15.08516371
80 1 1.16039721 10.44357488 17.40595813
81 1 1.16039721 10.44357488 19.72675254
82 1 1.16039721 10.44357488 22.04754696
83 1 1.16039721 10.44357488 24.36834138
84 1 1.16039721 10.44357488 26.68913579
85 1 1.16039721 10.44357488 29.00993021
86 1 1.16039721 10.44357488 31.33072463
87 1 1.16039721 10.44357488 33.65151904
88 1 1.16039721 10.44357488 35.97231346
89 1 1.16039721 10.44357488 38.29310788
90 1 1.16039721 10.44357488 40.61390229
91 1 1.16039721 12.76436929 1.16039721
92 1 1.16039721 12.76436929 3.48119163
93 1 1.16039721 12.76436929 5.80198604
94 1 1.16039721 12.76436929 8.12278046
95 1 1.16039721 12.76436929 10.44357488
96 1 1.16039721 12.76436929 12.76436929
97 1 1.16039721 12.76436929 15.08516371
98 1 1.16039721 12.76436929 17.40595813
99 1 1.16039721 12.76436929 19.72675254
100 1 1.16039721 12.76436929 22.04754696
101 1 1.16039721 12.76436929 24.36834138
102 1 1.16039721 12.76436929 26.68913579
103 1 1.16039721 12.76436929 29.00993021
104 1 1.16039721 12.76436929 31.33072463
105 1 1.16039721 12.76436929 33.65151904
106 1 1.16039721 12.76436929 35.97231346
107 1 1.16039721 12.76436929 38.29310788
108 1 1.16039721 12.76436929 40.61390229
109 1 1.16039721 15.08516371 1.16039721
110 1 1.16039721 15.08516371 3.48119163
111 1 1.16039721 15.08516371 5.80198604
112 1 1.16039721 15.08516371 8.12278046
113 1 1.16039721 15.08516371 10.44357488
114 1 1.16039721 15.08516371 12.76436929
115 1 1.16039721 15.08516371 15.08516371
116 1 1.16039721 15.08516371 17.40595813
117 1 1.16039721 15.08516371 19.72675254
118 1 1.16039721 15.08516371 22.04754696
119 1 1.16039721 15.08516371 24.36834138
120 1 1.16039721 15.08516371 26.68913579
121 1 1.16039721 15.08516371 29.00993021
122 1 1.16039721 15.08516371 31.33072463
123 1 1.16039721 15.08516371 33.65151904
124 1 1.16039721 15.08516371 35.97231346
125 1 1.16039721 15.08516371 38.29310788
126 1 1.16039721 15.08516371 40.61390229
127 1 1.16039721 17.40595813 1.16039721
128 1 1.16039721 17.40595813 3.48119163
129 1 1.16039721 17.40595813 5.80198604
130 1 1.16039721 17.40595813 8.12278046
131 1 1.16039721 17.40595813 10.44357488
132 1 1.16039721 17.40595813 12.76436929
133 1 1.16039721 17.40595813 15.08516371
134 1 1.16039721 17.40595813 17.40595813
135 1 1.16039721 17.40595813 19.72675254
136 1 1.16039721 17.40595813 22.04754696
137 1 1.16039721 17.40595813 24.36834138
138 1 1.16039721 17.40595813 26.68913579
139 1 1.16039721 17.40595813 29.00993021
140 1 1.16039721 17.40595813 31.33072463
141 1 1.16039721 17.40595813 33.65151904
142 1 1.16039721 17.40595813 35.97231346
143 1 1.16039721 17.40595813 38.29310788
144 1 1.16039721 17.40595813 40.61390229
145 1 1.16039721 19.72675254 1.16039721
146 1 1.16039721 19.72675254 3.48119163
147 1 1.16039721 19.72675254 5.80198604
148 1 1.16039721 19.72675254 8.12278046
149 1 1.16039721 19.72675254 10.44357488
150 1 1.16039721 19.72675254 12.76436929
151 1 1.16039721 19.72675254 15.08516371
152 1 1.16039721 19.72675254 17.40595813
153 1 1.16039721 19.72675254 19.72675254
154 1 1.16039721 19.72675254 22.04754696
155 1 1.16039721 19.72675254 24.36834138
156 1 1.16039721 19.72675254 26.68913579
157 1 1.16039721 19.72675254 29.00993021
158 1 1.16039721 19.72675254 31.33072463
159 1 1.16039721 19.72675254 33.65151904
160 1 1.16039721 19.72675254 35.97231346
161 1 1.16039721 19.72675254 38.29310788
162 1 1.16039721 19.72675254 40.61390229
163 1 1.16039721 22.04754696 1.16039721
164 1 1.16039721 22.04754696 3.48119163
165 1 1.16039721 22.04754696 5.80198604
166 1 1.16039721 22.04754696 8.12278046
167 1 1.16039721 22.04754696 10.44357488
168 1 1.16039721 22.04754696 12.76436929
169 1 1.16039721 22.04754696 15.08516371
170 1 1.16039721 22.04754696 17.40595813
171 1 1.16039721 22.04754696 19.72675254
172 1 1.16039721 22.04754696 22.04754696
173 1 1.16039721 22.04754696 24.36834138
174 1 1.16039721 22.04754696 26.68913579
175 1 1.16039721 22.04754696 29.00993021
176 1 1.16039721 22.04754696 31.33072463
177 1 1.16039721 22.04754696 33.65151904
178 1 1.16039721 22.04754696 35.97231346
179 1 1.16039721 22.04754696 38.29310788
180 1 1.16039721 22.04754696 40.61390229
181 1 1.16039721 24.36834138 1.16039721
182 1 1.16039721 24.36834138 3.48119163
183 1 1.16039721 24.36834138 5.80198604
184 1 1.16039721 24.36834138 8.12278046
185 1 1.16039721 24.36834138 10.44357488
186 1 1.16039721 24.36834138 12.76436929
187 1 1.16039721 24.36834138 15.08516371
188 1 1.16039721 24.36834138 17.40595813
189 1 1.16039721 24.36834138 19.72675254
190 1 1.16039721 24.36834138 22.04754696
191 1 1.16039721 24.36834138 24.36834138
192 1 1.16039721 24.36834138 26.68913579
193 1 1.16039721 24.36834138 29.00993021
194 1 1.16039721 24.36834138 31.33072463
195 1 1.16039721 24.36834138 33.65151904
196 1 1.16039721 24.36834138 35.97231346
197 1 1.16039721 24.36834138 38.29310788
198 1 1.16039721 24.36834138 40.61390229
199 1 1.16039721 26.68913579 1.16039721
200 1 1.16039721 26.68913579 3.48119163
201 1 1.16039721 26.68913579 5.80198604
202 1 1.16039721 26.68913579 8.12278046
203 1 1.16039721 26.68913579 10.44357488
204 1 1.16039721 26.68913579 12.76436929
205 1 1.16039721 26.68913579 15.08516371
206 1 1.16039721 26.68913579 17.40595813
207 1 1.16039721 26.68913579 19.72675254
208 1 1.16039721 26.68913579 22.04754696
209 1 1.16039721 26.68913579 24.36834138
210 1 1.16039721 26.68913579 26.68913579
211 1 1.16039721 26.68913579 29.00993021
212 1 1.16039721 26.68913579 31.33072463
213 1 1.16039721 26.68913579 33.65151904
214 1 1.16039721 26.68913579 35.97231346
215 1 1.16039721 26.68913579 38.29310788
216 1 1.16039721 26.68913579 40.61390229
217 1 1.16039721 29.00993021 1.16039721
218 1 1.16039721 29.00993021 3.48119163
219 1 1.16039721 29.00993021 5.80198604
220 1 1.16039721 29.00993021 8.12278046
221 1 1.16039721 29.00993021 10.44357488
222 1 1.16039721 29.00993021 12.76436929
223 1 1.16039721 29.00993021 15.08516371
224 1 1.16039721 29.00993021 17.40595813
225 1 1.16039721 29.00993021 19.72675254
226 1 1.16039721 29.00993021 22.04754696
227 1 1.16039721 29.00993021 24.36834138
228 1 1.16039721 29.00993021 26.68913579
229 1 1.16039721 29.00993021 29.00993021
230 1 1.16039721 29.00993021 31.33072463
231 1 1.16039721 29.00993021 33.65151904
232 1 1.16039721 29.00993021 35.97231346
233 1 1.16039721 29.00993021 38.29310788
234 1 1.16039721 29.00993021 40.61390229
235 1 1.16039721 31.33072463 1.16039721
236 1 1.16039721 31.33072463 3.48119163
237 1 1.16039721 31.33072463 5.80198604
238 1 1.16039721 31.33072463 8.12278046
239 1 1.16039721 31.33072463 10.44357488
240 1 1.16039721 31.33072463 12.76436929
241 1 1.16039721 31.33072463 15.08516371
242 1 1.16039721 31.33072463 17.40595813
243 1 1.16039721 31.33072463 19.72675254
244 1 1.16039721 31.33072463 22.04754696
245 1 1.16039721 31.33072463 24.36834138
246 1 1.16039721 31.33072463 26.68913579
247 1 1.16039721 31.33072463 29.00993021
248 1 1.16039721 31.33072463 31.33072463
249 1 1.16039721 31.33072463 33.65151904
250 1 1.16039721 31.33072463 35.97231346
251 1 1.16039721 31.33072463 38.29310788
252 1 1.16039721 31.33072463 40.61390229
253 1 1.16039721 33.65151904 1.16039721
254 1 1.16039721 33.65151904 3.48119163
255 1 1.16039721 33.65151904 5.80198604
256 1 1.16039721 33.65151904 8.12278046
257 1 1.16039721 33.65151904 10.44357488
258 1 1.16039721 33.65151904 12.76436929
259 1 1.16039721 33.65151904 15.08516371
260 1 1.16039721 33.65151904 17.40595813
261 1 1.16039721 33.65151904 19.72675254
262 1 1.16039721 33.65151904 22.04754696
263 1 1.16039721 33.65151904 24.36834138
264 1 1.16039721 33.65151904 26.68913579
265 1 1.16039721 33.65151904 29.00993021
266 1 1.16039721 33.65151904 31.33072463
267 1 1.16039721 33.65151904 33.65151904
268 1 1.16039721 33.65151904 35.97231346
269 1 1.16039721 33.65151904 38.29310788
270 1 1.16039721 33.65151904 40.61390229
271 1 1.16039721 35.97231346 1.16039721
272 1 1.16039721 35.97231346 3.48119163
273 1 1.16039721 35.97231346 5.80198604
274 1 1.16039721 35.97231346 8.12278046
275 1 1.16039721 35.97231346 10.44357488
276 1 1.16039721 35.97231346 12.76436929
277 1 1.16039721 35.97231346 15.08516371
278 1 1.16039721 35.97231346 17.40595813
279 1 1.16039721 35.97231346 19.72675254
280 1 1.16039721 35.97231346 22.04754696
281 1 1.16039721 35.97231346 24.36834138
282 1 1.16039721 35.97231346 26.68913579
283 1 1.16039721 35.97231346 29.00993021
284 1 1.16039721 35.97231346 31.33072463
285 1 1.16039721 35.97231346 33.65151904
286 1 1.16039721 35.97231346 35.97231346
287 1 1.16039721 35.97231346 38.29310788
288 1 1.16039721 35.97231346 40.61390229
289 1 1.16039721 38.29310788 1.16039721
290 1 1.16039721 38.29310788 3.48119163
291 1 1.16039721 38.29310788 5.80198604
292 1 1.16039721 38.29310788 8.12278046
293 1 1.16039721 38.29310788 10.44357488
294 1 1.16039721 38.29310788 12.76436929
295 1 1.16039721 38.29310788 15.08516371
296 1 1.16039721 38.29310788 17.40595813
297 1 1.16039721 38.29310788 19.72675254
298 1 1.16039721 38.29310788 22.04754696
299 1 1.16039721 38.29310788 24.36834138
300 1 1.16039721 38.29310788 26.68913579
301 1 1.16039721 38.29310788 29.00993021
302 1 1.16039721 38.29310788 31.33072463
303 1 1.16039721 38.29310788 33.65151904
304 1 1.16039721 38.29310788 35.97231346
305 1 1.16039721 38.29310788 38.29310788
306 1 1.16039721 38.29310788 40.61390229
307 1 1.16039721 40.61390229 1.16039721
308 1 1.16039721 40.61390229 3.48119163
309 1 1.16039721 40.61390229 5.80198604
310 1 1.16039721 40.61390229 8.12278046
311 1 1.16039721 40.61390229 10.44357488
312 1 1.16039721 40.61390229 12.76436929
313 1 1.16039721 40.61390229 15.08516371
314 1 1.16039721 40.61390229 17.40595813
315 1 1.16039721 40.61390229 19.72675254
316 1 1.16039721 40.61390229 22.04754696
317 1 1.16039721 40.61390229 24.36834138
318 1 1.16039721 40.61390229 26.68913579
319 1 1.16039721 40.61390229 29.00993021
320 1 1.16039721 40.61390229 31.33072463
321 1 1.16039721 40.61390229 33.65151904
322 1 1.16039721 40.61390229 35.97231346
323 1 1.16039721 40.61390229 38.29310788
324 1 1.16039721 40.61390229 40.61390229
325 1 3.48119163 1.16039721 1.16039721
326 1 3.48119163 1.16039721 3.48119163
327 1 3.48119163 1.16039721 5.80198604
328 1 3.48119163 1.16039721 8.12278046
329 1 3.48119163 1.16039721 10.44357488
330 1 3.48119163 1.16039721 12.76436929
331 1 3.48119163 1.16039721 15.08516371
332 1 3.48119163 1.16039721 17.40595813
333 1 3.48119163 1.16039721 19.72675254
334 1 3.48119163 1.16039721 22.04754696
335 1 3.48119163 1.16039721 24.36834138
336 1 3.48119163 1.16039721 26.68913579
337 1 3.48119163 1.16039721 29.00993021
338 1 3.48119163 1.16039721 31.33072463
339 1 3.48119163 1.16039721 33.65151904
340 1 3.48119163 1.16039721 35.97231346
341 1 3.48119163 1.16039721 38.29310788
342 1 3.48119163 1.16039721 40.61390229
343 1 3.48119163 3.48119163 1.16039721
344 1 3.48119163 3.48119163 3.48119163
345 1 3.48119163 3.48119163 5.80198604
346 1 3.48119163 3.48119163 8.12278046
347 1 3.48119163 3.48119163 10.44357488
348 1 3.48119163 3.48119163 12.76436929
349 1 3.48119163 3.48119163 15.08516371
350 1 3.48119163 3.48119163 17.40595813
351 1 3.48119163 3.48119163 19.72675254
352 1 3.48119163 3.48119163 22.04754696
353 1 3.48119163 3.48119163 24.36834138
354 1 3.48119163 3.48119163 26.68913579
355 1 3.48119163 3.48119163 29.00993021
356 1 3.48119163 3.48119163 31.33072463
357 1 3.48119163 3.48119163 33.65151904
358 1 3.48119163 3.48119163 35.97231346
359 1 3.48119163 3.48119163 38.29310788
360 1 3.48119163 3.48119163 40.61390229
361 1 3.48119163 5.80198604 1.16039721
362 1 3.48119163 5.80198604 3.48119163
363 1 3.48119163 5.80198604 5.80198604
364 1 3.48119163 5.80198604 8.12278046
365 1 3.48119163 5.80198604 10.44357488
366 1 3.48119163 5.80198604 12.76436929
367 1 3.48119163 5.80198604 15.08516371
368 1 3.48119163 5.80198604 17.40595813
369 1 3.48119163 5.80198604 19.72675254
370 1 3.48119163 5.80198604 22.04754696
371 1 3.48119163 5.80198604 24.36834138
372 1 3.48119163 5.80198604 26.68913579
373 1 3.48119163 5.80198604 29.00993021
374 1 3.48119163 5.80198604 31.33072463
375 1 3.48119163 5.80198604 33.65151904
376 1 3.48119163 5.80198604 35.97231346
377 1 3.48119163 5.80198604 38.29310788
378 1 3.48119163 5.80198604 40.61390229
379 1 3.48119163 8.12278046 1.16039721
380 1 3.48119163 8.12278046 3.48119163
381 1 3.48119163 8.12278046 5.80198604
382 1 3.48119163 8.12278046 8.12278046
383 1 3.48119163 8.12278046 10.44357488
384 1 3.48119163 8.12278046 12.76436929
385 1 3.48119163 8.12278046 15.08516371
386 1 3.48119163 8.12278046 17.40595813
387 1 3.48119163 8.12278046 19.72675254
388 1 3.48119163 8.12278046 22.04754696
389 1 3.48119163 8.12278046 24.36834138
390 1 3.48119163 8.12278046 26.68913579
391 1 3.48119163 8.12278046 29.00993021
392 1 3.48119163 8.12278046 31.33072463
393 1 3.48119163 8.12278046 33.65151904
394 1 3.48119163 8.12278046 35.97231346
395 1 3.48119163 8.12278046 38.29310788
396 1 3.48119163 8.12278046 40.61390229
397 1 3.48119163 10.44357488 1.16039721
398 1 3.48119163 10.44357488 3.48119163
399 1 3.48119163 10.44357488 5.80198604
400 1 3.48119163 10.44357488 8.12278046
401 1 3.48119163 10.44357488 10.44357488
402 1 3.48119163 10.44357488 12.76436929
403 1 3.48119163 10.44357488 15.08516371
404 1 3.48119163 10.44357488 17.40595813
405 1 3.48119163 10.44357488 19.72675254
406 1 3.48119163 10.44357488 22.04754696
407 1 3.48119163 10.44357488 24.36834138
408 1 3.48119163 10.44357488 26.68913579
409 1 3.48119163 10.44357488 29.00993021
410 1 3.48119163 10.44357488 31.33072463
411 1 3.48119163 10.44357488 33.65151904
412 1 3.48119163 10.44357488 35.97231346
413 1 3.48119163 10.44357488 38.29310788
414 1 3.48119163 10.44357488 40.61390229
415 1 3.48119163 12.76436929 1.16039721
416 1 3.48119163 12.76436929 3.48119163
417 1 3.48119163 12.76436929 5.80198604
418 1 3.48119163 12.76436929 8.12278046
419 1 3.48119163 12.76436929 10.44357488
420 1 3.48119163 12.76436929 12.76436929
421 1 3.48119163 12.76436929 15.08516371
422 1 3.48119163 12.76436929 17.40595813
423 1 3.48119163 12.76436929 19.72675254
424 1 3.48119163 12.76436929 22.04754696
425 1 3.48119163 12.76436929 24.36834138
426 1 3.48119163 12.76436929 26.68913579
427 1 3.48119163 12.76436929 29.00993021
428 1 3.48119163 12.76436929 31.33072463
429 1 3.48119163 12.76436929 33.65151904
430 1 3.48119163 12.76436929 35.97231346
431 1 3.48119163 12.76436929 38.29310788
432 1 3.48119163 12.76436929 40.61390229
433 1 3.48119163 15.08516371 1.16039721
434 1 3.48119163 15.08516371 3.48119163
435 1 3.48119163 15.08516371 5.80198604
436 1 3.48119163 15.08516371 8.12278046
437 1 3.48119163 15.08516371 10.44357488
438 1 3.48119163 15.08516371 12.76436929
439 1 3.48119163 15.08516371 15.08516371
440 1 3.48119163 15.08516371 17.40595813
441 1 3.48119163 15.08516371 19.72675254
442 1 3.48119163 15.08516371 22.04754696
443 1 3.48119163 15.08516371 24.36834138
444 1 3.48119163 15.08516371 26.68913579
445 1 3.48119163 15.08516371 29.00993021
446 1 3.48119163 15.08516371 31.33072463
447 1 3.48119163 15.08516371 33.65151904
448 1 3.48119163 15.08516371 35.97231346
449 1 3.48119163 15.08516371 38.29310788
450 1 3.48119163 15.08516371 40.61390229
451 1 3.48119163 17.40595813 1.16039721
452 1 3.48119163 17.40595813 3.48119163
453 1 3.48119163 17.40595813 5.80198604
454 1 3.48119163 17.40595813 8.12278046
455 1 3.48119163 17.40595813 10.44357488
456 1 3.48119163 17.40595813 12.76436929
457 1 3.48119163 17.40595813 15.08516371
458 1 3.48119163 17.40595813 17.40595813
459 1 3.48119163 17.40595813 19.72675254
460 1 3.48119163 17.40595813 22.04754696
461 1 3.48119163 17.40595813 24.36834138
462 1 3.48119163 17.40595813 26.68913579
463 1 3.48119163 17.40595813 29.00993021
464 1 3.48119163 17.40595813 31.33072463
465 1 3.48119163 17.40595813 33.65151904
466 1 3.48119163 17.40595813 35.97231346
467 1 3.48119163 17.40595813 38.29310788
468 1 3.48119163 17.40595813 40.61390229
469 1 3.48119163 19.72675254 1.16039721
470 1 3.48119163 19.72675254 3.48119163
471 1 3.48119163 19.72675254 5.80198604
472 1 3.48119163 19.72675254 8.12278046
473 1 3.48119163 19.72675254 10.44357488
474 1 3.48119163 19.72675254 12.76436929
475 1 3.48119163 19.72675254 15.08516371
476 1 3.48119163 19.72675254 17.40595813
477 1 3.48119163 19.72675254 19.72675254
478 1 3.48119163 19.72675254 22.04754696
479 1 3.48119163 19.72675254 24.36834138
480 1 3.48119163 19.72675254 26.68913579
481 1 3.48119163 19.72675254 29.00993021
482 1 3.48119163 19.72675254 31.33072463
483 1 3.48119163 19.72675254 33.65151904
484 1 3.48119163 19.72675254 35.97231346
485 1 3.48119163 19.72675254 38.29310788
486 1 3.48119163 19.72675254 40.61390229
487 1 3.48119163 22.04754696 1.16039721
488 1 3.48119163 22.04754696 3.48119163
489 1 3.48119163 22.04754696 5.80198604
490 1 3.48119163 22.04754696 8.12278046
491 1 3.48119163 22.04754696 10.44357488
492 1 3.48119163 22.04754696 12.76436929
493 1 3.48119163 22.04754696 15.08516371
494 1 3.48119163 22.04754696 17.40595813
495 1 3.48119163 22.04754696 19.72675254
496 1 3.48119163 22.04754696 22.04754696
497 1 3.48119163 22.04754696 24.36834138
498 1 3.48119163 22.04754696 26.68913579
499 1 3.48119163 22.04754696 29.00993021
500 1 3.48119163 22.04754696 31.33072463
501 1 3.48119163 22.04754696 33.65151904
502 1 3.48119163 22.04754696 35.97231346
503 1 3.48119163 22.04754696 38.29310788
504 1 3.48119163 22.04754696 40.61390229
505 1 3.48119163 24.36834138 1.16039721
506 1 3.48119163 24.36834138 3.48119163
507 1 3.48119163 24.36834138 5.80198604
508 1 3.48119163 24.36834138 8.12278046
509 1 3.48119163 24.36834138 10.44357488
510 1 3.48119163 24.36834138 12.76436929
511 1 3.48119163 24.36834138 15.08516371
512 1 3.48119163 24.36834138 17.40595813
513 1 3.48119163 24.36834138 19.72675254
514 1 3.48119163 24.36834138 22.04754696
515 1 3.48119163 24.36834138 24.36834138
516 1 3.48119163 24.36834138 26.68913579
517 1 3.48119163 24.36834138 29.00993021
518 1 3.48119163 24.36834138 31.33072463
519 1 3.48119163 24.36834138 33.65151904
520 1 3.48119163 24.36834138 35.97231346
521 1 3.48119163 24.36834138 38.29310788
522 1 3.48119163 24.36834138 40.61390229
523 1 3.48119163 26.68913579 1.16039721
524 1 3.48119163 26.68913579 3.48119163
525 1 3.48119163 26.68913579 5.80198604
526 1 3.48119163 26.68913579 8.12278046
527 1 3.48119163 26.68913579 10.44357488
528 1 3.48119163 26.68913579 12.76436929
529 1 3.48119163 26.68913579 15.08516371
530 1 3.48119163 26.68913579 17.40595813
531 1 3.48119163 26.68913579 19.72675254
532 1 3.48119163 26.68913579 22.04754696
533 1 3.48119163 26.68913579 24.36834138
534 1 3.48119163 26.68913579 26.68913579
535 1 3.48119163 26.68913579 29.00993021
536 1 3.48119163 26.68913579 31.33072463
537 1 3.48119163 26.68913579 33.65151904
538 1 3.48119163 26.68913579 35.97231346
539 1 3.48119163 26.68913579 38.29310788
540 1 3.48119163 26.68913579 40.61390229
541 1 3.48119163 29.00993021 1.16039721
542 1 3.48119163 29.00993021 3.48119163
543 1 3.48119163 29.00993021 5.80198604
544 1 3.48119163 29.00993021 8.12278046
545 1 3.48119163 29.00993021 10.44357488
546 1 3.48119163 29.00993021 12.76436929
547 1 3.48119163 29.00993021 15.08516371
548 1 3.48119163 29.00993021 17.40595813
549 1 3.48119163 29.00993021 19.72675254
550 1 3.48119163 29.00993021 22.04754696
551 1 3.48119163 29.00993021 24.36834138
552 1 3.48119163 29.00993021 26.68913579
553 1 3.48119163 29.00993021 29.00993021
554 1 3.48119163 29.00993021 31.33072463
555 1 3.48119163 29.00993021 33.65151904
556 1 3.48119163 29.00993021 35.97231346
557 1 3.48119163 29.00993021 38.29310788
558 1 3.48119163 29.00993021 40.61390229
559 1 3.48119163 31.33072463 1.16039721
560 1 3.48119163 31.33072463 3.48119163
561 1 3.48119163 31.33072463 5.80198604
562 1 3.48119163 31.33072463 8.12278046
563 1 3.48119163 31.33072463 10.44357488
564 1 3.48119163 31.33072463 12.76436929
565 1 3.48119163 31.33072463 15.08516371
566 1 3.48119163 31.33072463 17.40595813
567 1 3.48119163 31.33072463 19.72675254
568 1 3.48119163 31.33072463 22.04754696
569 1 3.48119163 31.33072463 24.36834138
570 1 3.48119163 31.33072463 26.68913579
571 1 3.48119163 31.33072463 29.00993021
572 1 3.48119163 31.33072463 31.33072463
573 1 3.48119163 31.33072463 33.65151904
574 1 3.48119163 31.33072463 35.97231346
575 1 3.48119163 31.33072463 38.29310788
576 1 3.48119163 31.33072463 40.61390229
577 1 3.48119163 33.65151904 1.16039721
578 1 3.48119163 33.65151904 3.48119163
579 1 3.48119163 33.65151904 5.80198604
580 1 3.48119163 33.65151904 8.12278046
581 1 3.48119163 33.65151904 10.44357488
582 1 3.48119163 33.65151904 12.76436929
583 1 3.48119163 33.65151904 15.08516371
584 1 3.48119163 33.65151904 17.40595813
585 1 3.48119163 33.65151904 19.72675254
586 1 3.48119163 33.65151904 22.04754696
587 1 3.48119163 33.65151904 24.36834138
588 1 3.48119163 33.65151904 26.68913579
589 1 3.48119163 33.65151904 29.00993021
590 1 3.48119163 33.65151904 31.33072463
591 1 3.48119163 33.65151904 33.65151904
592 1 3.48119163 33.65151904 35.97231346
593 1 3.48119163 33.65151904 38.29310788
594 1 3.48119163 33.65151904 40.61390229
595 1 3.48119163 35.97231346 1.16039721
596 1 3.48119163 35.97231346 3.48119163
597 1 3.48119163 35.97231346 5.80198604
598 1 3.48119163 35.97231346 8.12278046
599 1 3.48119163 35.97231346 10.44357488
600 1 3.48119163 35.97231346 12.76436929
601 1 3.48119163 35.97231346 15.08516371
602 1 3.48119163 35.97231346 17.40595813
603 1 3.48119163 35.97231346 19.72675254
604 1 3.48119163 35.97231346 22.04754696
605 1 3.48119163 35.97231346 24.36834138
606 1 3.48119163 35.97231346 26.68913579
607 1 3.48119163 35.97231346 29.00993021
608 1 3.48119163 35.97231346 31.33072463
609 1 3.48119163 35.97231346 33.65151904
610 1 3.48119163 35.97231346 35.97231346
611 1 3.48119163 35.97231346 38.29310788
612 1 3.48119163 35.97231346 40.61390229
613 1 3.48119163 38.29310788 1.16039721
614 1 3.48119163 38.29310788 3.48119163
615 1 3.48119163 38.29310788 5.80198604
616 1 3.48119163 38.29310788 8.12278046
617 1 3.48119163 38.29310788 10.44357488
618 1 3.48119163 38.29310788 12.76436929
619 1 3.48119163 38.29310788 15.08516371
620 1 3.48119163 38.29310788 17.40595813
621 1 3.48119163 38.29310788 19.72675254
622 1 3.48119163 38.29310788 22.04754696
623 1 3.48119163 38.29310788 24.36834138
624 1 3.48119163 38.29310788 26.68913579
625 1 3.48119163 38.29310788 29.00993021
626 1 3.48119163 38.29310788 31.33072463
627 1 3.48119163 38.29310788 33.65151904
628 1 3.48119163 38.29310788 35.97231346
629 1 3.48119163 38.29310788 38.29310788
630 1 3.48119163 38.29310788 40.61390229
631 1 3.48119163 40.61390229 1.16039721
632 1 3.48119163 40.61390229 3.48119163
633 1 3.48119163 40.61390229 5.80198604
634 1 3.48119163 40.61390229 8.12278046
635 1 3.48119163 40.61390229 10.44357488
636 1 3.48119163 40.61390229 12.76436929
637 1 3.48119163 40.61390229 15.08516371
638 1 3.48119163 40.61390229 17.40595813
639 1 3.48119163 40.61390229 19.72675254
640 1 3.48119163 40.61390229 22.04754696
641 1 3.48119163 40.61390229 24.36834138
642 1 3.48119163 40.61390229 26.68913579
643 1 3.48119163 40.61390229 29.00993021
644 1 3.48119163 40.61390229 31.33072463
645 1 3.48119163 40.61390229 33.65151904
646 1 3.48119163 40.61390229 35.97231346
647 1 3.48119163 40.61390229 38.29310788
648 1 3.48119163 40.61390229 40.61390229
649 1 5.80198604 1.16039721 1.16039721
650 1 5.80198604 1.16039721 3.48119163
651 1 5.80198604 1.16039721 5.80198604
652 1 5.80198604 1.16039721 8.12278046
653 1 5.80198604 1.16039721 10.44357488
654 1 5.80198604 1.16039721 12.76436929
655 1 5.80198604 1.16039721 15.08516371
656 1 5.80198604 1.16039721 17.40595813
657 1 5.80198604 1.16039721 19.72675254
658 1 5.80198604 1.16039721 22.04754696
659 1 5.80198604 1.16039721 24.36834138
660 1 5.80198604 1.16039721 26.68913579
661 1 5.80198604 1.16039721 29.00993021
662 1 5.80198604 1.16039721 31.33072463
663 1 5.80198604 1.16039721 33.65151904
664 1 5.80198604 1.16039721 35.97231346
665 1 5.80198604 1.16039721 38.29310788
666 1 5.80198604 1.16039721 40.61390229
667 1 5.80198604 3.48119163 1.16039721
668 1 5.80198604 3.48119163 3.48119163
669 1 5.80198604 3.48119163 5.80198604
670 1 5.80198604 3.48119163 8.12278046
671 1 5.80198604 3.48119163 10.44357488
672 1 5.80198604 3.48119163 12.76436929
673 1 5.80198604 3.48119163 15.08516371
674 1 5.80198604 3.48119163 17.40595813
675 1 5.80198604 3.48119163 19.72675254
676 1 5.80198604 3.48119163 22.04754696
677 1 5.80198604 3.48119163 24.36834138
678 1 5.80198604 3.48119163 26.68913579
679 1 5.80198604 3.48119163 29.00993021
680 1 5.80198604 3.48119163 31.33072463
681 1 5.80198604 3.48119163 33.65151904
682 1 5.80198604 3.48119163 35.97231346
683 1 5.80198604 3.48119163 38.29310788
684 1 5.80198604 3.48119163 40.61390229
685 1 5.80198604 5.80198604 1.16039721
686 1 5.80198604 5.80198604 3.48119163
687 1 5.80198604 5.80198604 5.80198604
688 1 5.80198604 5.80198604 8.12278046
689 1 5.80198604 5.80198604 10.44357488
690 1 5.80198604 5.80198604 12.76436929
691 1 5.80198604 5.80198604 15.08516371
692 1 5.80198604 5.80198604 17.40595813
693 1 5.80198604 5.80198604 19.72675254
694 1 5.80198604 5.80198604 22.04754696
695 1 5.80198604 5.80198604 24.36834138
696 1 5.80198604 5.80198604 26.68913579
697 1 5.80198604 5.80198604 29.00993021
698 1 5.80198604 5.80198604 31.33072463
699 1 5.80198604 5.80198604 33.65151904
700 1 5.80198604 5.80198604 35.97231346
701 1 5.80198604 5.80198604 38.29310788
702 1 5.80198604 5.80198604 40.61390229
703 1 5.80198604 8.12278046 1.16039721
704 1 5.80198604 8.12278046 3.48119163
705 1 5.80198604 8.12278046 5.80198604
706 1 5.80198604 8.12278046 8.12278046
707 1 5.80198604 8.12278046 10.44357488
708 1 5.80198604 8.12278046 12.76436929
709 1 5.80198604 8.12278046 15.08516371
710 1 5.80198604 8.12278046 17.40595813
711 1 5.80198604 8.12278046 19.72675254
712 1 5.80198604 8.12278046 22.04754696
713 1 5.80198604 8.12278046 24.36834138
714 1 5.80198604 8.12278046 26.68913579
715 1 5.80198604 8.12278046 29.00993021
716 1 5.80198604 8.12278046 31.33072463
717 1 5.80198604 8.12278046 33.65151904
718 1 5.80198604 8.12278046 35.97231346
719 1 5.80198604 8.12278046 38.29310788
720 1 5.80198604 8.12278046 40.61390229
721 1 5.80198604 10.44357488 1.16039721
722 1 5.80198604 10.44357488 3.48119163
723 1 5.80198604 10.44357488 5.80198604
724 1 5.80198604 10.44357488 8.12278046
725 1 5.80198604 10.44357488 10.44357488
726 1 5.80198604 10.44357488 12.76436929
727 1 5.80198604 10.44357488 15.08516371
728 1 5.80198604 10.44357488 17.40595813
729 1 5.80198604 10.44357488 19.72675254
730 1 5.80198604 10.44357488 22.04754696
731 1 5.80198604 10.44357488 24.36834138
732 1 5.80198604 10.44357488 26.68913579
733 1 5.80198604 10.44357488 29.00993021
734 1 5.80198604 10.44357488 31.33072463
735 1 5.80198604 10.44357488 33.65151904
736 1 5.80198604 10.44357488 35.97231346
737 1 5.80198604 10.44357488 38.29310788
738 1 5.80198604 10.44357488 40.61390229
739 1 5.80198604 12.76436929 1.16039721