LAMMPS Simulation Data
729 atoms
3 atom types

0 13.02 xlo xhi 
0 13.02 ylo yhi 
0 13.02 zlo zhi 

Masses

1 1.0
2 1.0
3 1.0

Atoms

1 1 0.72333333 0.72333333 0.72333333
2 1 0.72333333 0.72333333 2.17000000
3 1 0.72333333 0.72333333 3.61666667
4 1 0.72333333 0.72333333 5.06333333
5 1 0.72333333 0.72333333 6.51000000
6 1 0.72333333 0.72333333 7.95666667
7 1 0.72333333 0.72333333 9.40333333
8 1 0.72333333 0.72333333 10.85000000
9 1 0.72333333 0.72333333 12.29666667
10 1 0.72333333 2.17000000 0.72333333
11 1 0.72333333 2.17000000 2.17000000
12 1 0.72333333 2.17000000 3.61666667
13 1 0.72333333 2.17000000 5.06333333
14 1 0.72333333 2.17000000 6.51000000
15 1 0.72333333 2.17000000 7.95666667
16 1 0.72333333 2.17000000 9.40333333
17 1 0.72333333 2.17000000 10.85000000
18 1 0.72333333 2.17000000 12.29666667
19 1 0.72333333 3.61666667 0.72333333
20 1 0.72333333 3.61666667 2.17000000
21 1 0.72333333 3.61666667 3.61666667
22 1 0.72333333 3.61666667 5.06333333
23 1 0.72333333 3.61666667 6.51000000
24 1 0.72333333 3.61666667 7.95666667
25 1 0.72333333 3.61666667 9.40333333
26 1 0.72333333 3.61666667 10.85000000
27 1 0.72333333 3.61666667 12.29666667
28 1 0.72333333 5.06333333 0.72333333
29 1 0.72333333 5.06333333 2.17000000
30 1 0.72333333 5.06333333 3.61666667
31 1 0.72333333 5.06333333 5.06333333
32 1 0.72333333 5.06333333 6.51000000
33 1 0.72333333 5.06333333 7.95666667
34 1 0.72333333 5.06333333 9.40333333
35 1 0.72333333 5.06333333 10.85000000
36 1 0.72333333 5.06333333 12.29666667
37 1 0.72333333 6.51000000 0.72333333
38 1 0.72333333 6.51000000 2.17000000
39 1 0.72333333 6.51000000 3.61666667
40 1 0.72333333 6.51000000 5.06333333
41 1 0.72333333 6.51000000 6.51000000
42 1 0.72333333 6.51000000 7.95666667
43 1 0.72333333 6.51000000 9.40333333
44 1 0.72333333 6.51000000 10.85000000
45 1 0.72333333 6.51000000 12.29666667
46 1 0.72333333 7.95666667 0.72333333
47 1 0.72333333 7.95666667 2.17000000
48 1 0.72333333 7.95666667 3.61666667
49 1 0.72333333 7.95666667 5.06333333
50 1 0.72333333 7.95666667 6.51000000
51 1 0.72333333 7.95666667 7.95666667
52 1 0.72333333 7.95666667 9.40333333
53 1 0.72333333 7.95666667 10.85000000
54 1 0.72333333 7.95666667 12.29666667
55 1 0.72333333 9.40333333 0.72333333
56 1 0.72333333 9.40333333 2.17000000
57 1 0.72333333 9.40333333 3.61666667
58 1 0.72333333 9.40333333 5.06333333
59 1 0.72333333 9.40333333 6.51000000
60 1 0.72333333 9.40333333 7.95666667
61 1 0.72333333 9.40333333 9.40333333
62 1 0.72333333 9.40333333 10.85000000
63 1 0.72333333 9.40333333 12.29666667
64 1 0.72333333 10.85000000 0.72333333
65 1 0.72333333 10.85000000 2.17000000
66 1 0.72333333 10.85000000 3.61666667
67 1 0.72333333 10.85000000 5.06333333
68 1 0.72333333 10.85000000 6.51000000
69 1 0.72333333 10.85000000 7.95666667
70 1 0.72333333 10.85000000 9.40333333
71 1 0.72333333 10.85000000 10.85000000
72 1 0.72333333 10.85000000 12.29666667
73 1 0.72333333 12.29666667 0.72333333
74 1 0.72333333 12.29666667 2.17000000
75 1 0.72333333 12.29666667 3.61666667
76 1 0.72333333 12.29666667 5.06333333
77 1 0.72333333 12.29666667 6.51000000
78 1 0.72333333 12.29666667 7.95666667
79 1 0.72333333 12.29666667 9.40333333
80 1 0.72333333 12.29666667 10.85000000
81 1 0.72333333 12.29666667 12.29666667
82 1 2.17000000 0.72333333 0.72333333
83 1 2.17000000 0.72333333 2.17000000
84 1 2.17000000 0.72333333 3.61666667
85 1 2.17000000 0.72333333 5.06333333
86 1 2.17000000 0.72333333 6.51000000
87 1 2.17000000 0.72333333 7.95666667
88 1 2.17000000 0.72333333 9.40333333
89 1 2.17000000 0.72333333 10.85000000
90 1 2.17000000 0.72333333 12.29666667
91 1 2.17000000 2.17000000 0.72333333
92 1 2.17000000 2.17000000 2.17000000
93 1 2.17000000 2.17000000 3.61666667
94 1 2.17000000 2.17000000 5.06333333
95 1 2.17000000 2.17000000 6.51000000
96 1 2.17000000 2.17000000 7.95666667
97 1 2.17000000 2.17000000 9.40333333
98 1 2.17000000 2.17000000 10.85000000
99 1 2.17000000 2.17000000 12.29666667
100 1 2.17000000 3.61666667 0.72333333
101 1 2.17000000 3.61666667 2.17000000
102 1 2.17000000 3.61666667 3.61666667
103 1 2.17000000 3.61666667 5.06333333
104 1 2.17000000 3.61666667 6.51000000
105 1 2.17000000 3.61666667 7.95666667
106 1 2.17000000 3.61666667 9.40333333
107 1 2.17000000 3.61666667 10.85000000
108 1 2.17000000 3.61666667 12.29666667
109 1 2.17000000 5.06333333 0.72333333
110 1 2.17000000 5.06333333 2.17000000
111 1 2.17000000 5.06333333 3.61666667
112 1 2.17000000 5.06333333 5.06333333
113 1 2.17000000 5.06333333 6.51000000
114 1 2.17000000 5.06333333 7.95666667
115 1 2.17000000 5.06333333 9.40333333
116 1 2.17000000 5.06333333 10.85000000
117 1 2.17000000 5.06333333 12.29666667
118 1 2.17000000 6.51000000 0.72333333
119 1 2.17000000 6.51000000 2.17000000
120 1 2.17000000 6.51000000 3.61666667
121 1 2.17000000 6.51000000 5.06333333
122 1 2.17000000 6.51000000 6.51000000
123 1 2.17000000 6.51000000 7.95666667
124 1 2.17000000 6.51000000 9.40333333
125 1 2.17000000 6.51000000 10.85000000
126 1 2.17000000 6.51000000 12.29666667
127 1 2.17000000 7.95666667 0.72333333
128 1 2.17000000 7.95666667 2.17000000
129 1 2.17000000 7.95666667 3.61666667
130 1 2.17000000 7.95666667 5.06333333
131 1 2.17000000 7.95666667 6.51000000
132 1 2.17000000 7.95666667 7.95666667
133 1 2.17000000 7.95666667 9.40333333
134 1 2.17000000 7.95666667 10.85000000
135 1 2.17000000 7.95666667 12.29666667
136 1 2.17000000 9.40333333 0.72333333
137 1 2.17000000 9.40333333 2.17000000
138 1 2.17000000 9.40333333 3.61666667
139 1 2.17000000 9.40333333 5.06333333
140 1 2.17000000 9.40333333 6.51000000
141 1 2.17000000 9.40333333 7.95666667
142 1 2.17000000 9.40333333 9.40333333
143 1 2.17000000 9.40333333 10.85000000
144 1 2.17000000 9.40333333 12.29666667
145 1 2.17000000 10.85000000 0.72333333
146 1 2.17000000 10.85000000 2.17000000
147 1 2.17000000 10.85000000 3.61666667
148 1 2.17000000 10.85000000 5.06333333
149 1 2.17000000 10.85000000 6.51000000
150 1 2.17000000 10.85000000 7.95666667
151 1 2.17000000 10.85000000 9.40333333
152 1 2.17000000 10.85000000 10.85000000
153 1 2.17000000 10.85000000 12.29666667
154 1 2.17000000 12.29666667 0.72333333
155 1 2.17000000 12.29666667 2.17000000
156 1 2.17000000 12.29666667 3.61666667
157 1 2.17000000 12.29666667 5.06333333
158 1 2.17000000 12.29666667 6.51000000
159 1 2.17000000 12.29666667 7.95666667
160 1 2.17000000 12.29666667 9.40333333
161 1 2.17000000 12.29666667 10.85000000
162 1 2.17000000 12.29666667 12.29666667
163 1 3.61666667 0.72333333 0.72333333
164 1 3.61666667 0.72333333 2.17000000
165 1 3.61666667 0.72333333 3.61666667
166 1 3.61666667 0.72333333 5.06333333
167 1 3.61666667 0.72333333 6.51000000
168 1 3.61666667 0.72333333 7.95666667
169 1 3.61666667 0.72333333 9.40333333
170 1 3.61666667 0.72333333 10.85000000
171 1 3.61666667 0.72333333 12.29666667
172 1 3.61666667 2.17000000 0.72333333
173 1 3.61666667 2.17000000 2.17000000
174 1 3.61666667 2.17000000 3.61666667
175 1 3.61666667 2.17000000 5.06333333
176 1 3.61666667 2.17000000 6.51000000
177 1 3.61666667 2.17000000 7.95666667
178 1 3.61666667 2.17000000 9.40333333
179 1 3.61666667 2.17000000 10.85000000
180 1 3.61666667 2.17000000 12.29666667
181 1 3.61666667 3.61666667 0.72333333
182 1 3.61666667 3.61666667 2.17000000
183 1 3.61666667 3.61666667 3.61666667
184 1 3.61666667 3.61666667 5.06333333
185 1 3.61666667 3.61666667 6.51000000
186 1 3.61666667 3.61666667 7.95666667
187 1 3.61666667 3.61666667 9.40333333
188 1 3.61666667 3.61666667 10.85000000
189 1 3.61666667 3.61666667 12.29666667
190 1 3.61666667 5.06333333 0.72333333
191 1 3.61666667 5.06333333 2.17000000
192 1 3.61666667 5.06333333 3.61666667
193 1 3.61666667 5.06333333 5.06333333
194 1 3.61666667 5.06333333 6.51000000
195 1 3.61666667 5.06333333 7.95666667
196 1 3.61666667 5.06333333 9.40333333
197 1 3.61666667 5.06333333 10.85000000
198 1 3.61666667 5.06333333 12.29666667
199 1 3.61666667 6.51000000 0.72333333
200 1 3.61666667 6.51000000 2.17000000
201 1 3.61666667 6.51000000 3.61666667
202 1 3.61666667 6.51000000 5.06333333
203 1 3.61666667 6.51000000 6.51000000
204 1 3.61666667 6.51000000 7.95666667
205 1 3.61666667 6.51000000 9.40333333
206 1 3.61666667 6.51000000 10.85000000
207 1 3.61666667 6.51000000 12.29666667
208 1 3.61666667 7.95666667 0.72333333
209 1 3.61666667 7.95666667 2.17000000
210 1 3.61666667 7.95666667 3.61666667
211 1 3.61666667 7.95666667 5.06333333
212 1 3.61666667 7.95666667 6.51000000
213 1 3.61666667 7.95666667 7.95666667
214 1 3.61666667 7.95666667 9.40333333
215 1 3.61666667 7.95666667 10.85000000
216 1 3.61666667 7.95666667 12.29666667
217 1 3.61666667 9.40333333 0.72333333
218 1 3.61666667 9.40333333 2.17000000
219 1 3.61666667 9.40333333 3.61666667
220 1 3.61666667 9.40333333 5.06333333
221 1 3.61666667 9.40333333 6.51000000
222 1 3.61666667 9.40333333 7.95666667
223 1 3.61666667 9.40333333 9.40333333
224 1 3.61666667 9.40333333 10.85000000
225 1 3.61666667 9.40333333 12.29666667
226 1 3.61666667 10.85000000 0.72333333
227 1 3.61666667 10.85000000 2.17000000
228 1 3.61666667 10.85000000 3.61666667
229 1 3.61666667 10.85000000 5.06333333
230 1 3.61666667 10.85000000 6.51000000
231 1 3.61666667 10.85000000 7.95666667
232 1 3.61666667 10.85000000 9.40333333
233 1 3.61666667 10.85000000 10.85000000
234 1 3.61666667 10.85000000 12.29666667
235 1 3.61666667 12.29666667 0.72333333
236 1 3.61666667 12.29666667 2.17000000
237 1 3.61666667 12.29666667 3.61666667
238 1 3.61666667 12.29666667 5.06333333
239 1 3.61666667 12.29666667 6.51000000
240 1 3.61666667 12.29666667 7.95666667
241 1 3.61666667 12.29666667 9.40333333
242 1 3.61666667 12.29666667 10.85000000
243 1 3.61666667 12.29666667 12.29666667
244 2 5.06333333 0.72333333 0.72333333
245 2 5.06333333 0.72333333 2.17000000
246 2 5.06333333 0.72333333 3.61666667
247 2 5.06333333 0.72333333 5.06333333
248 2 5.06333333 0.72333333 6.51000000
249 2 5.06333333 0.72333333 7.95666667
250 2 5.06333333 0.72333333 9.40333333
251 2 5.06333333 0.72333333 10.85000000
252 2 5.06333333 0.72333333 12.29666667
253 2 5.06333333 2.17000000 0.72333333
254 2 5.06333333 2.17000000 2.17000000
255 2 5.06333333 2.17000000 3.61666667
256 2 5.06333333 2.17000000 5.06333333
257 2 5.06333333 2.17000000 6.51000000
258 2 5.06333333 2.17000000 7.95666667
259 2 5.06333333 2.17000000 9.40333333
260 2 5.06333333 2.17000000 10.85000000
261 2 5.06333333 2.17000000 12.29666667
262 2 5.06333333 3.61666667 0.72333333
263 2 5.06333333 3.61666667 2.17000000
264 2 5.06333333 3.61666667 3.61666667
265 2 5.06333333 3.61666667 5.06333333
266 2 5.06333333 3.61666667 6.51000000
267 2 5.06333333 3.61666667 7.95666667
268 2 5.06333333 3.61666667 9.40333333
269 2 5.06333333 3.61666667 10.85000000
270 2 5.06333333 3.61666667 12.29666667
271 2 5.06333333 5.06333333 0.72333333
272 2 5.06333333 5.06333333 2.17000000
273 2 5.06333333 5.06333333 3.61666667
274 2 5.06333333 5.06333333 5.06333333
275 2 5.06333333 5.06333333 6.51000000
276 2 5.06333333 5.06333333 7.95666667
277 2 5.06333333 5.06333333 9.40333333
278 2 5.06333333 5.06333333 10.85000000
279 2 5.06333333 5.06333333 12.29666667
280 2 5.06333333 6.51000000 0.72333333
281 2 5.06333333 6.51000000 2.17000000
282 2 5.06333333 6.51000000 3.61666667
283 2 5.06333333 6.51000000 5.06333333
284 2 5.06333333 6.51000000 6.51000000
285 2 5.06333333 6.51000000 7.95666667
286 2 5.06333333 6.51000000 9.40333333
287 2 5.06333333 6.51000000 10.85000000
288 2 5.06333333 6.51000000 12.29666667
289 2 5.06333333 7.95666667 0.72333333
290 2 5.06333333 7.95666667 2.17000000
291 2 5.06333333 7.95666667 3.61666667
292 2 5.06333333 7.95666667 5.06333333
293 2 5.06333333 7.95666667 6.51000000
294 2 5.06333333 7.95666667 7.95666667
295 2 5.06333333 7.95666667 9.40333333
296 2 5.06333333 7.95666667 10.85000000
297 2 5.06333333 7.95666667 12.29666667
298 2 5.06333333 9.40333333 0.72333333
299 2 5.06333333 9.40333333 2.17000000
300 2 5.06333333 9.40333333 3.61666667
301 2 5.06333333 9.40333333 5.06333333
302 2 5.06333333 9.40333333 6.51000000
303 2 5.06333333 9.40333333 7.95666667
304 2 5.06333333 9.40333333 9.40333333
305 2 5.06333333 9.40333333 10.85000000
306 2 5.06333333 9.40333333 12.29666667
307 2 5.06333333 10.85000000 0.72333333
308 2 5.06333333 10.85000000 2.17000000
309 2 5.06333333 10.85000000 3.61666667
310 2 5.06333333 10.85000000 5.06333333
311 2 5.06333333 10.85000000 6.51000000
312 2 5.06333333 10.85000000 7.95666667
313 2 5.06333333 10.85000000 9.40333333
314 2 5.06333333 10.85000000 10.85000000
315 2 5.06333333 10.85000000 12.29666667
316 2 5.06333333 12.29666667 0.72333333
317 2 5.06333333 12.29666667 2.17000000
318 2 5.06333333 12.29666667 3.61666667
319 2 5.06333333 12.29666667 5.06333333
320 2 5.06333333 12.29666667 6.51000000
321 2 5.06333333 12.29666667 7.95666667
322 2 5.06333333 12.29666667 9.40333333
323 2 5.06333333 12.29666667 10.85000000
324 2 5.06333333 12.29666667 12.29666667
325 2 6.51000000 0.72333333 0.72333333
326 2 6.51000000 0.72333333 2.17000000
327 2 6.51000000 0.72333333 3.61666667
328 2 6.51000000 0.72333333 5.06333333
329 2 6.51000000 0.72333333 6.51000000
330 2 6.51000000 0.72333333 7.95666667
331 2 6.51000000 0.72333333 9.40333333
332 2 6.51000000 0.72333333 10.85000000
333 2 6.51000000 0.72333333 12.29666667
334 2 6.51000000 2.17000000 0.72333333
335 2 6.51000000 2.17000000 2.17000000
336 2 6.51000000 2.17000000 3.61666667
337 2 6.51000000 2.17000000 5.06333333
338 2 6.51000000 2.17000000 6.51000000
339 2 6.51000000 2.17000000 7.95666667
340 2 6.51000000 2.17000000 9.40333333
341 2 6.51000000 2.17000000 10.85000000
342 2 6.51000000 2.17000000 12.29666667
343 2 6.51000000 3.61666667 0.72333333
344 2 6.51000000 3.61666667 2.17000000
345 2 6.51000000 3.61666667 3.61666667
346 2 6.51000000 3.61666667 5.06333333
347 2 6.51000000 3.61666667 6.51000000
348 2 6.51000000 3.61666667 7.95666667
349 2 6.51000000 3.61666667 9.40333333
350 2 6.51000000 3.61666667 10.85000000
351 2 6.51000000 3.61666667 12.29666667
352 2 6.51000000 5.06333333 0.72333333
353 2 6.51000000 5.06333333 2.17000000
354 2 6.51000000 5.06333333 3.61666667
355 2 6.51000000 5.06333333 5.06333333
356 2 6.51000000 5.06333333 6.51000000
357 2 6.51000000 5.06333333 7.95666667
358 2 6.51000000 5.06333333 9.40333333
359 2 6.51000000 5.06333333 10.85000000
360 2 6.51000000 5.06333333 12.29666667
361 2 6.51000000 6.51000000 0.72333333
362 2 6.51000000 6.51000000 2.17000000
363 2 6.51000000 6.51000000 3.61666667
364 2 6.51000000 6.51000000 5.06333333
365 2 6.51000000 6.51000000 6.51000000
366 2 6.51000000 6.51000000 7.95666667
367 2 6.51000000 6.51000000 9.40333333
368 2 6.51000000 6.51000000 10.85000000
369 2 6.51000000 6.51000000 12.29666667
370 2 6.51000000 7.95666667 0.72333333
371 2 6.51000000 7.95666667 2.17000000
372 2 6.51000000 7.95666667 3.61666667
373 2 6.51000000 7.95666667 5.06333333
374 2 6.51000000 7.95666667 6.51000000
375 2 6.51000000 7.95666667 7.95666667
376 2 6.51000000 7.95666667 9.40333333
377 2 6.51000000 7.95666667 10.85000000
378 2 6.51000000 7.95666667 12.29666667
379 2 6.51000000 9.40333333 0.72333333
380 2 6.51000000 9.40333333 2.17000000
381 2 6.51000000 9.40333333 3.61666667
382 2 6.51000000 9.40333333 5.06333333
383 2 6.51000000 9.40333333 6.51000000
384 2 6.51000000 9.40333333 7.95666667
385 2 6.51000000 9.40333333 9.40333333
386 2 6.51000000 9.40333333 10.85000000
387 2 6.51000000 9.40333333 12.29666667
388 2 6.51000000 10.85000000 0.72333333
389 2 6.51000000 10.85000000 2.17000000
390 2 6.51000000 10.85000000 3.61666667
391 2 6.51000000 10.85000000 5.06333333
392 2 6.51000000 10.85000000 6.51000000
393 2 6.51000000 10.85000000 7.95666667
394 2 6.51000000 10.85000000 9.40333333
395 2 6.51000000 10.85000000 10.85000000
396 2 6.51000000 10.85000000 12.29666667
397 2 6.51000000 12.29666667 0.72333333
398 2 6.51000000 12.29666667 2.17000000
399 2 6.51000000 12.29666667 3.61666667
400 2 6.51000000 12.29666667 5.06333333
401 2 6.51000000 12.29666667 6.51000000
402 2 6.51000000 12.29666667 7.95666667
403 2 6.51000000 12.29666667 9.40333333
404 2 6.51000000 12.29666667 10.85000000
405 2 6.51000000 12.29666667 12.29666667
406 2 7.95666667 0.72333333 0.72333333
407 2 7.95666667 0.72333333 2.17000000
408 2 7.95666667 0.72333333 3.61666667
409 2 7.95666667 0.72333333 5.06333333
410 2 7.95666667 0.72333333 6.51000000
411 2 7.95666667 0.72333333 7.95666667
412 2 7.95666667 0.72333333 9.40333333
413 2 7.95666667 0.72333333 10.85000000
414 2 7.95666667 0.72333333 12.29666667
415 2 7.95666667 2.17000000 0.72333333
416 2 7.95666667 2.17000000 2.17000000
417 2 7.95666667 2.17000000 3.61666667
418 2 7.95666667 2.17000000 5.06333333
419 2 7.95666667 2.17000000 6.51000000
420 2 7.95666667 2.17000000 7.95666667
421 2 7.95666667 2.17000000 9.40333333
422 2 7.95666667 2.17000000 10.85000000
423 2 7.95666667 2.17000000 12.29666667
424 2 7.95666667 3.61666667 0.72333333
425 2 7.95666667 3.61666667 2.17000000
426 2 7.95666667 3.61666667 3.61666667
427 2 7.95666667 3.61666667 5.06333333
428 2 7.95666667 3.61666667 6.51000000
429 2 7.95666667 3.61666667 7.95666667
430 2 7.95666667 3.61666667 9.40333333
431 2 7.95666667 3.61666667 10.85000000
432 2 7.95666667 3.61666667 12.29666667
433 2 7.95666667 5.06333333 0.72333333
434 2 7.95666667 5.06333333 2.17000000
435 2 7.95666667 5.06333333 3.61666667
436 2 7.95666667 5.06333333 5.06333333
437 2 7.95666667 5.06333333 6.51000000
438 2 7.95666667 5.06333333 7.95666667
439 2 7.95666667 5.06333333 9.40333333
440 2 7.95666667 5.06333333 10.85000000
441 2 7.95666667 5.06333333 12.29666667
442 2 7.95666667 6.51000000 0.72333333
443 2 7.95666667 6.51000000 2.17000000
444 2 7.95666667 6.51000000 3.61666667
445 2 7.95666667 6.51000000 5.06333333
446 2 7.95666667 6.51000000 6.51000000
447 2 7.95666667 6.51000000 7.95666667
448 2 7.95666667 6.51000000 9.40333333
449 2 7.95666667 6.51000000 10.85000000
450 2 7.95666667 6.51000000 12.29666667
451 2 7.95666667 7.95666667 0.72333333
452 2 7.95666667 7.95666667 2.17000000
453 2 7.95666667 7.95666667 3.61666667
454 2 7.95666667 7.95666667 5.06333333
455 2 7.95666667 7.95666667 6.51000000
456 2 7.95666667 7.95666667 7.95666667
457 2 7.95666667 7.95666667 9.40333333
458 2 7.95666667 7.95666667 10.85000000
459 2 7.95666667 7.95666667 12.29666667
460 2 7.95666667 9.40333333 0.72333333
461 2 7.95666667 9.40333333 2.17000000
462 2 7.95666667 9.40333333 3.61666667
463 2 7.95666667 9.40333333 5.06333333
464 2 7.95666667 9.40333333 6.51000000
465 2 7.95666667 9.40333333 7.95666667
466 2 7.95666667 9.40333333 9.40333333
467 2 7.95666667 9.40333333 10.85000000
468 2 7.95666667 9.40333333 12.29666667
469 2 7.95666667 10.85000000 0.72333333
470 2 7.95666667 10.85000000 2.17000000
471 2 7.95666667 10.85000000 3.61666667
472 2 7.95666667 10.85000000 5.06333333
473 2 7.95666667 10.85000000 6.51000000
474 2 7.95666667 10.85000000 7.95666667
475 2 7.95666667 10.85000000 9.40333333
476 2 7.95666667 10.85000000 10.85000000
477 2 7.95666667 10.85000000 12.29666667
478 2 7.95666667 12.29666667 0.72333333
479 2 7.95666667 12.29666667 2.17000000
480 2 7.95666667 12.29666667 3.61666667
481 2 7.95666667 12.29666667 5.06333333
482 2 7.95666667 12.29666667 6.51000000
483 2 7.95666667 12.29666667 7.95666667
484 2 7.95666667 12.29666667 9.40333333
485 2 7.95666667 12.29666667 10.85000000
486 2 7.95666667 12.29666667 12.29666667
487 3 9.40333333 0.72333333 0.72333333
488 3 9.40333333 0.72333333 2.17000000
489 3 9.40333333 0.72333333 3.61666667
490 3 9.40333333 0.72333333 5.06333333
491 3 9.40333333 0.72333333 6.51000000
492 3 9.40333333 0.72333333 7.95666667
493 3 9.40333333 0.72333333 9.40333333
494 3 9.40333333 0.72333333 10.85000000
495 3 9.40333333 0.72333333 12.29666667
496 3 9.40333333 2.17000000 0.72333333
497 3 9.40333333 2.17000000 2.17000000
498 3 9.40333333 2.17000000 3.61666667
499 3 9.40333333 2.17000000 5.06333333
500 3 9.40333333 2.17000000 6.51000000
501 3 9.40333333 2.17000000 7.95666667
502 3 9.40333333 2.17000000 9.40333333
503 3 9.40333333 2.17000000 10.85000000
504 3 9.40333333 2.17000000 12.29666667
505 3 9.40333333 3.61666667 0.72333333
506 3 9.40333333 3.61666667 2.17000000
507 3 9.40333333 3.61666667 3.61666667
508 3 9.40333333 3.61666667 5.06333333
509 3 9.40333333 3.61666667 6.51000000
510 3 9.40333333 3.61666667 7.95666667
511 3 9.40333333 3.61666667 9.40333333
512 3 9.40333333 3.61666667 10.85000000
513 3 9.40333333 3.61666667 12.29666667
514 3 9.40333333 5.06333333 0.72333333
515 3 9.40333333 5.06333333 2.17000000
516 3 9.40333333 5.06333333 3.61666667
517 3 9.40333333 5.06333333 5.06333333
518 3 9.40333333 5.06333333 6.51000000
519 3 9.40333333 5.06333333 7.95666667
520 3 9.40333333 5.06333333 9.40333333
521 3 9.40333333 5.06333333 10.85000000
522 3 9.40333333 5.06333333 12.29666667
523 3 9.40333333 6.51000000 0.72333333
524 3 9.40333333 6.51000000 2.17000000
525 3 9.40333333 6.51000000 3.61666667
526 3 9.40333333 6.51000000 5.06333333
527 3 9.40333333 6.51000000 6.51000000
528 3 9.40333333 6.51000000 7.95666667
529 3 9.40333333 6.51000000 9.40333333
530 3 9.40333333 6.51000000 10.85000000
531 3 9.40333333 6.51000000 12.29666667
532 3 9.40333333 7.95666667 0.72333333
533 3 9.40333333 7.95666667 2.17000000
534 3 9.40333333 7.95666667 3.61666667
535 3 9.40333333 7.95666667 5.06333333
536 3 9.40333333 7.95666667 6.51000000
537 3 9.40333333 7.95666667 7.95666667
538 3 9.40333333 7.95666667 9.40333333
539 3 9.40333333 7.95666667 10.85000000
540 3 9.40333333 7.95666667 12.29666667
541 3 9.40333333 9.40333333 0.72333333
542 3 9.40333333 9.40333333 2.17000000
543 3 9.40333333 9.40333333 3.61666667
544 3 9.40333333 9.40333333 5.06333333
545 3 9.40333333 9.40333333 6.51000000
546 3 9.40333333 9.40333333 7.95666667
547 3 9.40333333 9.40333333 9.40333333
548 3 9.40333333 9.40333333 10.85000000
549 3 9.40333333 9.40333333 12.29666667
550 3 9.40333333 10.85000000 0.72333333
551 3 9.40333333 10.85000000 2.17000000
552 3 9.40333333 10.85000000 3.61666667
553 3 9.40333333 10.85000000 5.06333333
554 3 9.40333333 10.85000000 6.51000000
555 3 9.40333333 10.85000000 7.95666667
556 3 9.40333333 10.85000000 9.40333333
557 3 9.40333333 10.85000000 10.85000000
558 3 9.40333333 10.85000000 12.29666667
559 3 9.40333333 12.29666667 0.72333333
560 3 9.40333333 12.29666667 2.17000000
561 3 9.40333333 12.29666667 3.61666667
562 3 9.40333333 12.29666667 5.06333333
563 3 9.40333333 12.29666667 6.51000000
564 3 9.40333333 12.29666667 7.95666667
565 3 9.40333333 12.29666667 9.40333333
566 3 9.40333333 12.29666667 10.85000000
567 3 9.40333333 12.29666667 12.29666667
568 3 10.85000000 0.72333333 0.72333333
569 3 10.85000000 0.72333333 2.17000000
570 3 10.85000000 0.72333333 3.61666667
571 3 10.85000000 0.72333333 5.06333333
572 3 10.85000000 0.72333333 6.51000000
573 3 10.85000000 0.72333333 7.95666667
574 3 10.85000000 0.72333333 9.40333333
575 3 10.85000000 0.72333333 10.85000000
576 3 10.85000000 0.72333333 12.29666667
577 3 10.85000000 2.17000000 0.72333333
578 3 10.85000000 2.17000000 2.17000000
579 3 10.85000000 2.17000000 3.61666667
580 3 10.85000000 2.17000000 5.06333333
581 3 10.85000000 2.17000000 6.51000000
582 3 10.85000000 2.17000000 7.95666667
583 3 10.85000000 2.17000000 9.40333333
584 3 10.85000000 2.17000000 10.85000000
585 3 10.85000000 2.17000000 12.29666667
586 3 10.85000000 3.61666667 0.72333333
587 3 10.85000000 3.61666667 2.17000000
588 3 10.85000000 3.61666667 3.61666667
589 3 10.85000000 3.61666667 5.06333333
590 3 10.85000000 3.61666667 6.51000000
591 3 10.85000000 3.61666667 7.95666667
592 3 10.85000000 3.61666667 9.40333333
593 3 10.85000000 3.61666667 10.85000000
594 3 10.85000000 3.61666667 12.29666667
595 3 10.85000000 5.06333333 0.72333333
596 3 10.85000000 5.06333333 2.17000000
597 3 10.85000000 5.06333333 3.61666667
598 3 10.85000000 5.06333333 5.06333333
599 3 10.85000000 5.06333333 6.51000000
600 3 10.85000000 5.06333333 7.95666667
601 3 10.85000000 5.06333333 9.40333333
602 3 10.85000000 5.06333333 10.85000000
603 3 10.85000000 5.06333333 12.29666667
604 3 10.85000000 6.51000000 0.72333333
605 3 10.85000000 6.51000000 2.17000000
606 3 10.85000000 6.51000000 3.61666667
607 3 10.85000000 6.51000000 5.06333333
608 3 10.85000000 6.51000000 6.51000000
609 3 10.85000000 6.51000000 7.95666667
610 3 10.85000000 6.51000000 9.40333333
611 3 10.85000000 6.51000000 10.85000000
612 3 10.85000000 6.51000000 12.29666667
613 3 10.85000000 7.95666667 0.72333333
614 3 10.85000000 7.95666667 2.17000000
615 3 10.85000000 7.95666667 3.61666667
616 3 10.85000000 7.95666667 5.06333333
617 3 10.85000000 7.95666667 6.51000000
618 3 10.85000000 7.95666667 7.95666667
619 3 10.85000000 7.95666667 9.40333333
620 3 10.85000000 7.95666667 10.85000000
621 3 10.85000000 7.95666667 12.29666667
622 3 10.85000000 9.40333333 0.72333333
623 3 10.85000000 9.40333333 2.17000000
624 3 10.85000000 9.40333333 3.61666667
625 3 10.85000000 9.40333333 5.06333333
626 3 10.85000000 9.40333333 6.51000000
627 3 10.85000000 9.40333333 7.95666667
628 3 10.85000000 9.40333333 9.40333333
629 3 10.85000000 9.40333333 10.85000000
630 3 10.85000000 9.40333333 12.29666667
631 3 10.85000000 10.85000000 0.72333333
632 3 10.85000000 10.85000000 2.17000000
633 3 10.85000000 10.85000000 3.61666667
634 3 10.85000000 10.85000000 5.06333333
635 3 10.85000000 10.85000000 6.51000000
636 3 10.85000000 10.85000000 7.95666667
637 3 10.85000000 10.85000000 9.40333333
638 3 10.85000000 10.85000000 10.85000000
639 3 10.85000000 10.85000000 12.29666667
640 3 10.85000000 12.29666667 0.72333333
641 3 10.85000000 12.29666667 2.17000000
642 3 10.85000000 12.29666667 3.61666667
643 3 10.85000000 12.29666667 5.06333333
644 3 10.85000000 12.29666667 6.51000000
645 3 10.85000000 12.29666667 7.95666667
646 3 10.85000000 12.29666667 9.40333333
647 3 10.85000000 12.29666667 10.85000000
648 3 10.85000000 12.29666667 12.29666667
649 3 12.29666667 0.72333333 0.72333333
650 3 12.29666667 0.72333333 2.17000000
651 3 12.29666667 0.72333333 3.61666667
652 3 12.29666667 0.72333333 5.06333333
653 3 12.29666667 0.72333333 6.51000000
654 3 12.29666667 0.72333333 7.95666667
655 3 12.29666667 0.72333333 9.40333333
656 3 12.29666667 0.72333333 10.85000000
657 3 12.29666667 0.72333333 12.29666667
658 3 12.29666667 2.17000000 0.72333333
659 3 12.29666667 2.17000000 2.17000000
660 3 12.29666667 2.17000000 3.61666667
661 3 12.29666667 2.17000000 5.06333333
662 3 12.29666667 2.17000000 6.51000000
663 3 12.29666667 2.17000000 7.95666667
664 3 12.29666667 2.17000000 9.40333333
665 3 12.29666667 2.17000000 10.85000000
666 3 12.29666667 2.17000000 12.29666667
667 3 12.29666667 3.61666667 0.72333333
668 3 12.29666667 3.61666667 2.17000000
669 3 12.29666667 3.61666667 3.61666667
670 3 12.29666667 3.61666667 5.06333333
671 3 12.29666667 3.61666667 6.51000000
672 3 12.29666667 3.61666667 7.95666667
673 3 12.29666667 3.61666667 9.40333333
674 3 12.29666667 3.61666667 10.85000000
675 3 12.29666667 3.61666667 12.29666667
676 3 12.29666667 5.06333333 0.72333333
677 3 12.29666667 5.06333333 2.17000000
678 3 12.29666667 5.06333333 3.61666667
679 3 12.29666667 5.06333333 5.06333333
680 3 12.29666667 5.06333333 6.51000000
681 3 12.29666667 5.06333333 7.95666667
682 3 12.29666667 5.06333333 9.40333333
683 3 12.29666667 5.06333333 10.85000000
684 3 12.29666667 5.06333333 12.29666667
685 3 12.29666667 6.51000000 0.72333333
686 3 12.29666667 6.51000000 2.17000000
687 3 12.29666667 6.51000000 3.61666667
688 3 12.29666667 6.51000000 5.06333333
689 3 12.29666667 6.51000000 6.51000000
690 3 12.29666667 6.51000000 7.95666667
691 3 12.29666667 6.51000000 9.40333333
692 3 12.29666667 6.51000000 10.85000000
693 3 12.29666667 6.51000000 12.29666667
694 3 12.29666667 7.95666667 0.72333333
695 3 12.29666667 7.95666667 2.17000000
696 3 12.29666667 7.95666667 3.61666667
697 3 12.29666667 7.95666667 5.06333333
698 3 12.29666667 7.95666667 6.51000000
699 3 12.29666667 7.95666667 7.95666667
700 3 12.29666667 7.95666667 9.40333333
701 3 12.29666667 7.95666667 10.85000000
702 3 12.29666667 7.95666667 12.29666667
703 3 12.29666667 9.40333333 0.72333333
704 3 12.29666667 9.40333333 2.17000000
705 3 12.29666667 9.40333333 3.61666667
706 3 12.29666667 9.40333333 5.06333333
707 3 12.29666667 9.40333333 6.51000000
708 3 12.29666667 9.40333333 7.95666667
709 3 12.29666667 9.40333333 9.40333333
710 3 12.29666667 9.40333333 10.85000000
711 3 12.29666667 9.40333333 12.29666667
712 3 12.29666667 10.85000000 0.72333333
713 3 12.29666667 10.85000000 2.17000000
714 3 12.29666667 10.85000000 3.61666667
715 3 12.29666667 10.85000000 5.06333333
716 3 12.29666667 10.85000000 6.51000000
717 3 12.29666667 10.85000000 7.95666667
718 3 12.29666667 10.85000000 9.40333333
719 3 12.29666667 10.85000000 10.85000000
720 3 12.29666667 10.85000000 12.29666667
721 3 12.29666667 12.29666667 0.72333333
722 3 12.29666667 12.29666667 2.17000000
723 3 12.29666667 12.29666667 3.61666667
724 3 12.29666667 12.29666667 5.06333333
725 3 12.29666667 12.29666667 6.51000000
726 3 12.29666667 12.29666667 7.95666667
727 3 12.29666667 12.29666667 9.40333333
728 3 12.29666667 12.29666667 10.85000000
729 3 12.29666667 12.29666667 12.29666667
