LAMMPS (8 Feb 2023)
units lj
dimension 3
atom_style atomic
boundary p p p

read_data indata.in
ERROR: Cannot open file indata.in: No such file or directory (../read_data.cpp:367)
Last command: read_data indata.in
