LAMMPS Simulation Data
512 atoms
2 atom types

0 44.03 xlo xhi 
0 44.03 ylo yhi 
0 44.03 zlo zhi 

Masses

1 1.0
2 1.0

Atoms

1 1 2.75187500 2.75187500 2.75187500
2 1 2.75187500 2.75187500 8.25562500
3 1 2.75187500 2.75187500 13.75937500
4 1 2.75187500 2.75187500 19.26312500
5 1 2.75187500 2.75187500 24.76687500
6 1 2.75187500 2.75187500 30.27062500
7 1 2.75187500 2.75187500 35.77437500
8 1 2.75187500 2.75187500 41.27812500
9 1 2.75187500 8.25562500 2.75187500
10 1 2.75187500 8.25562500 8.25562500
11 1 2.75187500 8.25562500 13.75937500
12 1 2.75187500 8.25562500 19.26312500
13 1 2.75187500 8.25562500 24.76687500
14 1 2.75187500 8.25562500 30.27062500
15 1 2.75187500 8.25562500 35.77437500
16 1 2.75187500 8.25562500 41.27812500
17 1 2.75187500 13.75937500 2.75187500
18 1 2.75187500 13.75937500 8.25562500
19 1 2.75187500 13.75937500 13.75937500
20 1 2.75187500 13.75937500 19.26312500
21 1 2.75187500 13.75937500 24.76687500
22 1 2.75187500 13.75937500 30.27062500
23 1 2.75187500 13.75937500 35.77437500
24 1 2.75187500 13.75937500 41.27812500
25 1 2.75187500 19.26312500 2.75187500
26 1 2.75187500 19.26312500 8.25562500
27 1 2.75187500 19.26312500 13.75937500
28 1 2.75187500 19.26312500 19.26312500
29 1 2.75187500 19.26312500 24.76687500
30 1 2.75187500 19.26312500 30.27062500
31 1 2.75187500 19.26312500 35.77437500
32 1 2.75187500 19.26312500 41.27812500
33 1 2.75187500 24.76687500 2.75187500
34 1 2.75187500 24.76687500 8.25562500
35 1 2.75187500 24.76687500 13.75937500
36 1 2.75187500 24.76687500 19.26312500
37 1 2.75187500 24.76687500 24.76687500
38 1 2.75187500 24.76687500 30.27062500
39 1 2.75187500 24.76687500 35.77437500
40 1 2.75187500 24.76687500 41.27812500
41 1 2.75187500 30.27062500 2.75187500
42 1 2.75187500 30.27062500 8.25562500
43 1 2.75187500 30.27062500 13.75937500
44 1 2.75187500 30.27062500 19.26312500
45 1 2.75187500 30.27062500 24.76687500
46 1 2.75187500 30.27062500 30.27062500
47 1 2.75187500 30.27062500 35.77437500
48 1 2.75187500 30.27062500 41.27812500
49 1 2.75187500 35.77437500 2.75187500
50 1 2.75187500 35.77437500 8.25562500
51 1 2.75187500 35.77437500 13.75937500
52 1 2.75187500 35.77437500 19.26312500
53 1 2.75187500 35.77437500 24.76687500
54 1 2.75187500 35.77437500 30.27062500
55 1 2.75187500 35.77437500 35.77437500
56 1 2.75187500 35.77437500 41.27812500
57 1 2.75187500 41.27812500 2.75187500
58 1 2.75187500 41.27812500 8.25562500
59 1 2.75187500 41.27812500 13.75937500
60 1 2.75187500 41.27812500 19.26312500
61 1 2.75187500 41.27812500 24.76687500
62 1 2.75187500 41.27812500 30.27062500
63 1 2.75187500 41.27812500 35.77437500
64 1 2.75187500 41.27812500 41.27812500
65 1 8.25562500 2.75187500 2.75187500
66 1 8.25562500 2.75187500 8.25562500
67 1 8.25562500 2.75187500 13.75937500
68 1 8.25562500 2.75187500 19.26312500
69 1 8.25562500 2.75187500 24.76687500
70 1 8.25562500 2.75187500 30.27062500
71 1 8.25562500 2.75187500 35.77437500
72 1 8.25562500 2.75187500 41.27812500
73 1 8.25562500 8.25562500 2.75187500
74 1 8.25562500 8.25562500 8.25562500
75 1 8.25562500 8.25562500 13.75937500
76 1 8.25562500 8.25562500 19.26312500
77 1 8.25562500 8.25562500 24.76687500
78 1 8.25562500 8.25562500 30.27062500
79 1 8.25562500 8.25562500 35.77437500
80 1 8.25562500 8.25562500 41.27812500
81 1 8.25562500 13.75937500 2.75187500
82 1 8.25562500 13.75937500 8.25562500
83 1 8.25562500 13.75937500 13.75937500
84 1 8.25562500 13.75937500 19.26312500
85 1 8.25562500 13.75937500 24.76687500
86 1 8.25562500 13.75937500 30.27062500
87 1 8.25562500 13.75937500 35.77437500
88 1 8.25562500 13.75937500 41.27812500
89 1 8.25562500 19.26312500 2.75187500
90 1 8.25562500 19.26312500 8.25562500
91 1 8.25562500 19.26312500 13.75937500
92 1 8.25562500 19.26312500 19.26312500
93 1 8.25562500 19.26312500 24.76687500
94 1 8.25562500 19.26312500 30.27062500
95 1 8.25562500 19.26312500 35.77437500
96 1 8.25562500 19.26312500 41.27812500
97 1 8.25562500 24.76687500 2.75187500
98 1 8.25562500 24.76687500 8.25562500
99 1 8.25562500 24.76687500 13.75937500
100 1 8.25562500 24.76687500 19.26312500
101 1 8.25562500 24.76687500 24.76687500
102 1 8.25562500 24.76687500 30.27062500
103 1 8.25562500 24.76687500 35.77437500
104 1 8.25562500 24.76687500 41.27812500
105 1 8.25562500 30.27062500 2.75187500
106 1 8.25562500 30.27062500 8.25562500
107 1 8.25562500 30.27062500 13.75937500
108 1 8.25562500 30.27062500 19.26312500
109 1 8.25562500 30.27062500 24.76687500
110 1 8.25562500 30.27062500 30.27062500
111 1 8.25562500 30.27062500 35.77437500
112 1 8.25562500 30.27062500 41.27812500
113 1 8.25562500 35.77437500 2.75187500
114 1 8.25562500 35.77437500 8.25562500
115 1 8.25562500 35.77437500 13.75937500
116 1 8.25562500 35.77437500 19.26312500
117 1 8.25562500 35.77437500 24.76687500
118 1 8.25562500 35.77437500 30.27062500
119 1 8.25562500 35.77437500 35.77437500
120 1 8.25562500 35.77437500 41.27812500
121 1 8.25562500 41.27812500 2.75187500
122 1 8.25562500 41.27812500 8.25562500
123 1 8.25562500 41.27812500 13.75937500
124 1 8.25562500 41.27812500 19.26312500
125 1 8.25562500 41.27812500 24.76687500
126 1 8.25562500 41.27812500 30.27062500
127 1 8.25562500 41.27812500 35.77437500
128 1 8.25562500 41.27812500 41.27812500
129 1 13.75937500 2.75187500 2.75187500
130 1 13.75937500 2.75187500 8.25562500
131 1 13.75937500 2.75187500 13.75937500
132 1 13.75937500 2.75187500 19.26312500
133 1 13.75937500 2.75187500 24.76687500
134 1 13.75937500 2.75187500 30.27062500
135 1 13.75937500 2.75187500 35.77437500
136 1 13.75937500 2.75187500 41.27812500
137 1 13.75937500 8.25562500 2.75187500
138 1 13.75937500 8.25562500 8.25562500
139 1 13.75937500 8.25562500 13.75937500
140 1 13.75937500 8.25562500 19.26312500
141 1 13.75937500 8.25562500 24.76687500
142 1 13.75937500 8.25562500 30.27062500
143 1 13.75937500 8.25562500 35.77437500
144 1 13.75937500 8.25562500 41.27812500
145 1 13.75937500 13.75937500 2.75187500
146 1 13.75937500 13.75937500 8.25562500
147 1 13.75937500 13.75937500 13.75937500
148 1 13.75937500 13.75937500 19.26312500
149 1 13.75937500 13.75937500 24.76687500
150 1 13.75937500 13.75937500 30.27062500
151 1 13.75937500 13.75937500 35.77437500
152 1 13.75937500 13.75937500 41.27812500
153 1 13.75937500 19.26312500 2.75187500
154 1 13.75937500 19.26312500 8.25562500
155 1 13.75937500 19.26312500 13.75937500
156 1 13.75937500 19.26312500 19.26312500
157 1 13.75937500 19.26312500 24.76687500
158 1 13.75937500 19.26312500 30.27062500
159 1 13.75937500 19.26312500 35.77437500
160 1 13.75937500 19.26312500 41.27812500
161 1 13.75937500 24.76687500 2.75187500
162 1 13.75937500 24.76687500 8.25562500
163 1 13.75937500 24.76687500 13.75937500
164 1 13.75937500 24.76687500 19.26312500
165 1 13.75937500 24.76687500 24.76687500
166 1 13.75937500 24.76687500 30.27062500
167 1 13.75937500 24.76687500 35.77437500
168 1 13.75937500 24.76687500 41.27812500
169 1 13.75937500 30.27062500 2.75187500
170 1 13.75937500 30.27062500 8.25562500
171 1 13.75937500 30.27062500 13.75937500
172 1 13.75937500 30.27062500 19.26312500
173 1 13.75937500 30.27062500 24.76687500
174 1 13.75937500 30.27062500 30.27062500
175 1 13.75937500 30.27062500 35.77437500
176 1 13.75937500 30.27062500 41.27812500
177 1 13.75937500 35.77437500 2.75187500
178 1 13.75937500 35.77437500 8.25562500
179 1 13.75937500 35.77437500 13.75937500
180 1 13.75937500 35.77437500 19.26312500
181 1 13.75937500 35.77437500 24.76687500
182 1 13.75937500 35.77437500 30.27062500
183 1 13.75937500 35.77437500 35.77437500
184 1 13.75937500 35.77437500 41.27812500
185 1 13.75937500 41.27812500 2.75187500
186 1 13.75937500 41.27812500 8.25562500
187 1 13.75937500 41.27812500 13.75937500
188 1 13.75937500 41.27812500 19.26312500
189 1 13.75937500 41.27812500 24.76687500
190 1 13.75937500 41.27812500 30.27062500
191 1 13.75937500 41.27812500 35.77437500
192 1 13.75937500 41.27812500 41.27812500
193 1 19.26312500 2.75187500 2.75187500
194 1 19.26312500 2.75187500 8.25562500
195 1 19.26312500 2.75187500 13.75937500
196 1 19.26312500 2.75187500 19.26312500
197 1 19.26312500 2.75187500 24.76687500
198 1 19.26312500 2.75187500 30.27062500
199 1 19.26312500 2.75187500 35.77437500
200 1 19.26312500 2.75187500 41.27812500
201 1 19.26312500 8.25562500 2.75187500
202 1 19.26312500 8.25562500 8.25562500
203 1 19.26312500 8.25562500 13.75937500
204 1 19.26312500 8.25562500 19.26312500
205 1 19.26312500 8.25562500 24.76687500
206 1 19.26312500 8.25562500 30.27062500
207 1 19.26312500 8.25562500 35.77437500
208 1 19.26312500 8.25562500 41.27812500
209 1 19.26312500 13.75937500 2.75187500
210 1 19.26312500 13.75937500 8.25562500
211 1 19.26312500 13.75937500 13.75937500
212 1 19.26312500 13.75937500 19.26312500
213 1 19.26312500 13.75937500 24.76687500
214 1 19.26312500 13.75937500 30.27062500
215 1 19.26312500 13.75937500 35.77437500
216 1 19.26312500 13.75937500 41.27812500
217 1 19.26312500 19.26312500 2.75187500
218 1 19.26312500 19.26312500 8.25562500
219 1 19.26312500 19.26312500 13.75937500
220 1 19.26312500 19.26312500 19.26312500
221 1 19.26312500 19.26312500 24.76687500
222 1 19.26312500 19.26312500 30.27062500
223 1 19.26312500 19.26312500 35.77437500
224 1 19.26312500 19.26312500 41.27812500
225 1 19.26312500 24.76687500 2.75187500
226 1 19.26312500 24.76687500 8.25562500
227 1 19.26312500 24.76687500 13.75937500
228 1 19.26312500 24.76687500 19.26312500
229 1 19.26312500 24.76687500 24.76687500
230 1 19.26312500 24.76687500 30.27062500
231 1 19.26312500 24.76687500 35.77437500
232 1 19.26312500 24.76687500 41.27812500
233 1 19.26312500 30.27062500 2.75187500
234 1 19.26312500 30.27062500 8.25562500
235 1 19.26312500 30.27062500 13.75937500
236 1 19.26312500 30.27062500 19.26312500
237 1 19.26312500 30.27062500 24.76687500
238 1 19.26312500 30.27062500 30.27062500
239 1 19.26312500 30.27062500 35.77437500
240 1 19.26312500 30.27062500 41.27812500
241 1 19.26312500 35.77437500 2.75187500
242 1 19.26312500 35.77437500 8.25562500
243 1 19.26312500 35.77437500 13.75937500
244 1 19.26312500 35.77437500 19.26312500
245 1 19.26312500 35.77437500 24.76687500
246 1 19.26312500 35.77437500 30.27062500
247 1 19.26312500 35.77437500 35.77437500
248 1 19.26312500 35.77437500 41.27812500
249 1 19.26312500 41.27812500 2.75187500
250 1 19.26312500 41.27812500 8.25562500
251 1 19.26312500 41.27812500 13.75937500
252 1 19.26312500 41.27812500 19.26312500
253 1 19.26312500 41.27812500 24.76687500
254 1 19.26312500 41.27812500 30.27062500
255 1 19.26312500 41.27812500 35.77437500
256 1 19.26312500 41.27812500 41.27812500
257 2 24.76687500 2.75187500 2.75187500
258 2 24.76687500 2.75187500 8.25562500
259 2 24.76687500 2.75187500 13.75937500
260 2 24.76687500 2.75187500 19.26312500
261 2 24.76687500 2.75187500 24.76687500
262 2 24.76687500 2.75187500 30.27062500
263 2 24.76687500 2.75187500 35.77437500
264 2 24.76687500 2.75187500 41.27812500
265 2 24.76687500 8.25562500 2.75187500
266 2 24.76687500 8.25562500 8.25562500
267 2 24.76687500 8.25562500 13.75937500
268 2 24.76687500 8.25562500 19.26312500
269 2 24.76687500 8.25562500 24.76687500
270 2 24.76687500 8.25562500 30.27062500
271 2 24.76687500 8.25562500 35.77437500
272 2 24.76687500 8.25562500 41.27812500
273 2 24.76687500 13.75937500 2.75187500
274 2 24.76687500 13.75937500 8.25562500
275 2 24.76687500 13.75937500 13.75937500
276 2 24.76687500 13.75937500 19.26312500
277 2 24.76687500 13.75937500 24.76687500
278 2 24.76687500 13.75937500 30.27062500
279 2 24.76687500 13.75937500 35.77437500
280 2 24.76687500 13.75937500 41.27812500
281 2 24.76687500 19.26312500 2.75187500
282 2 24.76687500 19.26312500 8.25562500
283 2 24.76687500 19.26312500 13.75937500
284 2 24.76687500 19.26312500 19.26312500
285 2 24.76687500 19.26312500 24.76687500
286 2 24.76687500 19.26312500 30.27062500
287 2 24.76687500 19.26312500 35.77437500
288 2 24.76687500 19.26312500 41.27812500
289 2 24.76687500 24.76687500 2.75187500
290 2 24.76687500 24.76687500 8.25562500
291 2 24.76687500 24.76687500 13.75937500
292 2 24.76687500 24.76687500 19.26312500
293 2 24.76687500 24.76687500 24.76687500
294 2 24.76687500 24.76687500 30.27062500
295 2 24.76687500 24.76687500 35.77437500
296 2 24.76687500 24.76687500 41.27812500
297 2 24.76687500 30.27062500 2.75187500
298 2 24.76687500 30.27062500 8.25562500
299 2 24.76687500 30.27062500 13.75937500
300 2 24.76687500 30.27062500 19.26312500
301 2 24.76687500 30.27062500 24.76687500
302 2 24.76687500 30.27062500 30.27062500
303 2 24.76687500 30.27062500 35.77437500
304 2 24.76687500 30.27062500 41.27812500
305 2 24.76687500 35.77437500 2.75187500
306 2 24.76687500 35.77437500 8.25562500
307 2 24.76687500 35.77437500 13.75937500
308 2 24.76687500 35.77437500 19.26312500
309 2 24.76687500 35.77437500 24.76687500
310 2 24.76687500 35.77437500 30.27062500
311 2 24.76687500 35.77437500 35.77437500
312 2 24.76687500 35.77437500 41.27812500
313 2 24.76687500 41.27812500 2.75187500
314 2 24.76687500 41.27812500 8.25562500
315 2 24.76687500 41.27812500 13.75937500
316 2 24.76687500 41.27812500 19.26312500
317 2 24.76687500 41.27812500 24.76687500
318 2 24.76687500 41.27812500 30.27062500
319 2 24.76687500 41.27812500 35.77437500
320 2 24.76687500 41.27812500 41.27812500
321 2 30.27062500 2.75187500 2.75187500
322 2 30.27062500 2.75187500 8.25562500
323 2 30.27062500 2.75187500 13.75937500
324 2 30.27062500 2.75187500 19.26312500
325 2 30.27062500 2.75187500 24.76687500
326 2 30.27062500 2.75187500 30.27062500
327 2 30.27062500 2.75187500 35.77437500
328 2 30.27062500 2.75187500 41.27812500
329 2 30.27062500 8.25562500 2.75187500
330 2 30.27062500 8.25562500 8.25562500
331 2 30.27062500 8.25562500 13.75937500
332 2 30.27062500 8.25562500 19.26312500
333 2 30.27062500 8.25562500 24.76687500
334 2 30.27062500 8.25562500 30.27062500
335 2 30.27062500 8.25562500 35.77437500
336 2 30.27062500 8.25562500 41.27812500
337 2 30.27062500 13.75937500 2.75187500
338 2 30.27062500 13.75937500 8.25562500
339 2 30.27062500 13.75937500 13.75937500
340 2 30.27062500 13.75937500 19.26312500
341 2 30.27062500 13.75937500 24.76687500
342 2 30.27062500 13.75937500 30.27062500
343 2 30.27062500 13.75937500 35.77437500
344 2 30.27062500 13.75937500 41.27812500
345 2 30.27062500 19.26312500 2.75187500
346 2 30.27062500 19.26312500 8.25562500
347 2 30.27062500 19.26312500 13.75937500
348 2 30.27062500 19.26312500 19.26312500
349 2 30.27062500 19.26312500 24.76687500
350 2 30.27062500 19.26312500 30.27062500
351 2 30.27062500 19.26312500 35.77437500
352 2 30.27062500 19.26312500 41.27812500
353 2 30.27062500 24.76687500 2.75187500
354 2 30.27062500 24.76687500 8.25562500
355 2 30.27062500 24.76687500 13.75937500
356 2 30.27062500 24.76687500 19.26312500
357 2 30.27062500 24.76687500 24.76687500
358 2 30.27062500 24.76687500 30.27062500
359 2 30.27062500 24.76687500 35.77437500
360 2 30.27062500 24.76687500 41.27812500
361 2 30.27062500 30.27062500 2.75187500
362 2 30.27062500 30.27062500 8.25562500
363 2 30.27062500 30.27062500 13.75937500
364 2 30.27062500 30.27062500 19.26312500
365 2 30.27062500 30.27062500 24.76687500
366 2 30.27062500 30.27062500 30.27062500
367 2 30.27062500 30.27062500 35.77437500
368 2 30.27062500 30.27062500 41.27812500
369 2 30.27062500 35.77437500 2.75187500
370 2 30.27062500 35.77437500 8.25562500
371 2 30.27062500 35.77437500 13.75937500
372 2 30.27062500 35.77437500 19.26312500
373 2 30.27062500 35.77437500 24.76687500
374 2 30.27062500 35.77437500 30.27062500
375 2 30.27062500 35.77437500 35.77437500
376 2 30.27062500 35.77437500 41.27812500
377 2 30.27062500 41.27812500 2.75187500
378 2 30.27062500 41.27812500 8.25562500
379 2 30.27062500 41.27812500 13.75937500
380 2 30.27062500 41.27812500 19.26312500
381 2 30.27062500 41.27812500 24.76687500
382 2 30.27062500 41.27812500 30.27062500
383 2 30.27062500 41.27812500 35.77437500
384 2 30.27062500 41.27812500 41.27812500
385 2 35.77437500 2.75187500 2.75187500
386 2 35.77437500 2.75187500 8.25562500
387 2 35.77437500 2.75187500 13.75937500
388 2 35.77437500 2.75187500 19.26312500
389 2 35.77437500 2.75187500 24.76687500
390 2 35.77437500 2.75187500 30.27062500
391 2 35.77437500 2.75187500 35.77437500
392 2 35.77437500 2.75187500 41.27812500
393 2 35.77437500 8.25562500 2.75187500
394 2 35.77437500 8.25562500 8.25562500
395 2 35.77437500 8.25562500 13.75937500
396 2 35.77437500 8.25562500 19.26312500
397 2 35.77437500 8.25562500 24.76687500
398 2 35.77437500 8.25562500 30.27062500
399 2 35.77437500 8.25562500 35.77437500
400 2 35.77437500 8.25562500 41.27812500
401 2 35.77437500 13.75937500 2.75187500
402 2 35.77437500 13.75937500 8.25562500
403 2 35.77437500 13.75937500 13.75937500
404 2 35.77437500 13.75937500 19.26312500
405 2 35.77437500 13.75937500 24.76687500
406 2 35.77437500 13.75937500 30.27062500
407 2 35.77437500 13.75937500 35.77437500
408 2 35.77437500 13.75937500 41.27812500
409 2 35.77437500 19.26312500 2.75187500
410 2 35.77437500 19.26312500 8.25562500
411 2 35.77437500 19.26312500 13.75937500
412 2 35.77437500 19.26312500 19.26312500
413 2 35.77437500 19.26312500 24.76687500
414 2 35.77437500 19.26312500 30.27062500
415 2 35.77437500 19.26312500 35.77437500
416 2 35.77437500 19.26312500 41.27812500
417 2 35.77437500 24.76687500 2.75187500
418 2 35.77437500 24.76687500 8.25562500
419 2 35.77437500 24.76687500 13.75937500
420 2 35.77437500 24.76687500 19.26312500
421 2 35.77437500 24.76687500 24.76687500
422 2 35.77437500 24.76687500 30.27062500
423 2 35.77437500 24.76687500 35.77437500
424 2 35.77437500 24.76687500 41.27812500
425 2 35.77437500 30.27062500 2.75187500
426 2 35.77437500 30.27062500 8.25562500
427 2 35.77437500 30.27062500 13.75937500
428 2 35.77437500 30.27062500 19.26312500
429 2 35.77437500 30.27062500 24.76687500
430 2 35.77437500 30.27062500 30.27062500
431 2 35.77437500 30.27062500 35.77437500
432 2 35.77437500 30.27062500 41.27812500
433 2 35.77437500 35.77437500 2.75187500
434 2 35.77437500 35.77437500 8.25562500
435 2 35.77437500 35.77437500 13.75937500
436 2 35.77437500 35.77437500 19.26312500
437 2 35.77437500 35.77437500 24.76687500
438 2 35.77437500 35.77437500 30.27062500
439 2 35.77437500 35.77437500 35.77437500
440 2 35.77437500 35.77437500 41.27812500
441 2 35.77437500 41.27812500 2.75187500
442 2 35.77437500 41.27812500 8.25562500
443 2 35.77437500 41.27812500 13.75937500
444 2 35.77437500 41.27812500 19.26312500
445 2 35.77437500 41.27812500 24.76687500
446 2 35.77437500 41.27812500 30.27062500
447 2 35.77437500 41.27812500 35.77437500
448 2 35.77437500 41.27812500 41.27812500
449 2 41.27812500 2.75187500 2.75187500
450 2 41.27812500 2.75187500 8.25562500
451 2 41.27812500 2.75187500 13.75937500
452 2 41.27812500 2.75187500 19.26312500
453 2 41.27812500 2.75187500 24.76687500
454 2 41.27812500 2.75187500 30.27062500
455 2 41.27812500 2.75187500 35.77437500
456 2 41.27812500 2.75187500 41.27812500
457 2 41.27812500 8.25562500 2.75187500
458 2 41.27812500 8.25562500 8.25562500
459 2 41.27812500 8.25562500 13.75937500
460 2 41.27812500 8.25562500 19.26312500
461 2 41.27812500 8.25562500 24.76687500
462 2 41.27812500 8.25562500 30.27062500
463 2 41.27812500 8.25562500 35.77437500
464 2 41.27812500 8.25562500 41.27812500
465 2 41.27812500 13.75937500 2.75187500
466 2 41.27812500 13.75937500 8.25562500
467 2 41.27812500 13.75937500 13.75937500
468 2 41.27812500 13.75937500 19.26312500
469 2 41.27812500 13.75937500 24.76687500
470 2 41.27812500 13.75937500 30.27062500
471 2 41.27812500 13.75937500 35.77437500
472 2 41.27812500 13.75937500 41.27812500
473 2 41.27812500 19.26312500 2.75187500
474 2 41.27812500 19.26312500 8.25562500
475 2 41.27812500 19.26312500 13.75937500
476 2 41.27812500 19.26312500 19.26312500
477 2 41.27812500 19.26312500 24.76687500
478 2 41.27812500 19.26312500 30.27062500
479 2 41.27812500 19.26312500 35.77437500
480 2 41.27812500 19.26312500 41.27812500
481 2 41.27812500 24.76687500 2.75187500
482 2 41.27812500 24.76687500 8.25562500
483 2 41.27812500 24.76687500 13.75937500
484 2 41.27812500 24.76687500 19.26312500
485 2 41.27812500 24.76687500 24.76687500
486 2 41.27812500 24.76687500 30.27062500
487 2 41.27812500 24.76687500 35.77437500
488 2 41.27812500 24.76687500 41.27812500
489 2 41.27812500 30.27062500 2.75187500
490 2 41.27812500 30.27062500 8.25562500
491 2 41.27812500 30.27062500 13.75937500
492 2 41.27812500 30.27062500 19.26312500
493 2 41.27812500 30.27062500 24.76687500
494 2 41.27812500 30.27062500 30.27062500
495 2 41.27812500 30.27062500 35.77437500
496 2 41.27812500 30.27062500 41.27812500
497 2 41.27812500 35.77437500 2.75187500
498 2 41.27812500 35.77437500 8.25562500
499 2 41.27812500 35.77437500 13.75937500
500 2 41.27812500 35.77437500 19.26312500
501 2 41.27812500 35.77437500 24.76687500
502 2 41.27812500 35.77437500 30.27062500
503 2 41.27812500 35.77437500 35.77437500
504 2 41.27812500 35.77437500 41.27812500
505 2 41.27812500 41.27812500 2.75187500
506 2 41.27812500 41.27812500 8.25562500
507 2 41.27812500 41.27812500 13.75937500
508 2 41.27812500 41.27812500 19.26312500
509 2 41.27812500 41.27812500 24.76687500
510 2 41.27812500 41.27812500 30.27062500
511 2 41.27812500 41.27812500 35.77437500
512 2 41.27812500 41.27812500 41.27812500
