LAMMPS Simulation Data
1000 atoms
1 atom types

0 99.99 xlo xhi 
0 99.99 ylo yhi 
0 99.99 zlo zhi 

Masses

1 1.0

Atoms

1 1 4.99950000 4.99950000 4.99950000
2 1 4.99950000 4.99950000 14.99850000
3 1 4.99950000 4.99950000 24.99750000
4 1 4.99950000 4.99950000 34.99650000
5 1 4.99950000 4.99950000 44.99550000
6 1 4.99950000 4.99950000 54.99450000
7 1 4.99950000 4.99950000 64.99350000
8 1 4.99950000 4.99950000 74.99250000
9 1 4.99950000 4.99950000 84.99150000
10 1 4.99950000 4.99950000 94.99050000
11 1 4.99950000 14.99850000 4.99950000
12 1 4.99950000 14.99850000 14.99850000
13 1 4.99950000 14.99850000 24.99750000
14 1 4.99950000 14.99850000 34.99650000
15 1 4.99950000 14.99850000 44.99550000
16 1 4.99950000 14.99850000 54.99450000
17 1 4.99950000 14.99850000 64.99350000
18 1 4.99950000 14.99850000 74.99250000
19 1 4.99950000 14.99850000 84.99150000
20 1 4.99950000 14.99850000 94.99050000
21 1 4.99950000 24.99750000 4.99950000
22 1 4.99950000 24.99750000 14.99850000
23 1 4.99950000 24.99750000 24.99750000
24 1 4.99950000 24.99750000 34.99650000
25 1 4.99950000 24.99750000 44.99550000
26 1 4.99950000 24.99750000 54.99450000
27 1 4.99950000 24.99750000 64.99350000
28 1 4.99950000 24.99750000 74.99250000
29 1 4.99950000 24.99750000 84.99150000
30 1 4.99950000 24.99750000 94.99050000
31 1 4.99950000 34.99650000 4.99950000
32 1 4.99950000 34.99650000 14.99850000
33 1 4.99950000 34.99650000 24.99750000
34 1 4.99950000 34.99650000 34.99650000
35 1 4.99950000 34.99650000 44.99550000
36 1 4.99950000 34.99650000 54.99450000
37 1 4.99950000 34.99650000 64.99350000
38 1 4.99950000 34.99650000 74.99250000
39 1 4.99950000 34.99650000 84.99150000
40 1 4.99950000 34.99650000 94.99050000
41 1 4.99950000 44.99550000 4.99950000
42 1 4.99950000 44.99550000 14.99850000
43 1 4.99950000 44.99550000 24.99750000
44 1 4.99950000 44.99550000 34.99650000
45 1 4.99950000 44.99550000 44.99550000
46 1 4.99950000 44.99550000 54.99450000
47 1 4.99950000 44.99550000 64.99350000
48 1 4.99950000 44.99550000 74.99250000
49 1 4.99950000 44.99550000 84.99150000
50 1 4.99950000 44.99550000 94.99050000
51 1 4.99950000 54.99450000 4.99950000
52 1 4.99950000 54.99450000 14.99850000
53 1 4.99950000 54.99450000 24.99750000
54 1 4.99950000 54.99450000 34.99650000
55 1 4.99950000 54.99450000 44.99550000
56 1 4.99950000 54.99450000 54.99450000
57 1 4.99950000 54.99450000 64.99350000
58 1 4.99950000 54.99450000 74.99250000
59 1 4.99950000 54.99450000 84.99150000
60 1 4.99950000 54.99450000 94.99050000
61 1 4.99950000 64.99350000 4.99950000
62 1 4.99950000 64.99350000 14.99850000
63 1 4.99950000 64.99350000 24.99750000
64 1 4.99950000 64.99350000 34.99650000
65 1 4.99950000 64.99350000 44.99550000
66 1 4.99950000 64.99350000 54.99450000
67 1 4.99950000 64.99350000 64.99350000
68 1 4.99950000 64.99350000 74.99250000
69 1 4.99950000 64.99350000 84.99150000
70 1 4.99950000 64.99350000 94.99050000
71 1 4.99950000 74.99250000 4.99950000
72 1 4.99950000 74.99250000 14.99850000
73 1 4.99950000 74.99250000 24.99750000
74 1 4.99950000 74.99250000 34.99650000
75 1 4.99950000 74.99250000 44.99550000
76 1 4.99950000 74.99250000 54.99450000
77 1 4.99950000 74.99250000 64.99350000
78 1 4.99950000 74.99250000 74.99250000
79 1 4.99950000 74.99250000 84.99150000
80 1 4.99950000 74.99250000 94.99050000
81 1 4.99950000 84.99150000 4.99950000
82 1 4.99950000 84.99150000 14.99850000
83 1 4.99950000 84.99150000 24.99750000
84 1 4.99950000 84.99150000 34.99650000
85 1 4.99950000 84.99150000 44.99550000
86 1 4.99950000 84.99150000 54.99450000
87 1 4.99950000 84.99150000 64.99350000
88 1 4.99950000 84.99150000 74.99250000
89 1 4.99950000 84.99150000 84.99150000
90 1 4.99950000 84.99150000 94.99050000
91 1 4.99950000 94.99050000 4.99950000
92 1 4.99950000 94.99050000 14.99850000
93 1 4.99950000 94.99050000 24.99750000
94 1 4.99950000 94.99050000 34.99650000
95 1 4.99950000 94.99050000 44.99550000
96 1 4.99950000 94.99050000 54.99450000
97 1 4.99950000 94.99050000 64.99350000
98 1 4.99950000 94.99050000 74.99250000
99 1 4.99950000 94.99050000 84.99150000
100 1 4.99950000 94.99050000 94.99050000
101 1 14.99850000 4.99950000 4.99950000
102 1 14.99850000 4.99950000 14.99850000
103 1 14.99850000 4.99950000 24.99750000
104 1 14.99850000 4.99950000 34.99650000
105 1 14.99850000 4.99950000 44.99550000
106 1 14.99850000 4.99950000 54.99450000
107 1 14.99850000 4.99950000 64.99350000
108 1 14.99850000 4.99950000 74.99250000
109 1 14.99850000 4.99950000 84.99150000
110 1 14.99850000 4.99950000 94.99050000
111 1 14.99850000 14.99850000 4.99950000
112 1 14.99850000 14.99850000 14.99850000
113 1 14.99850000 14.99850000 24.99750000
114 1 14.99850000 14.99850000 34.99650000
115 1 14.99850000 14.99850000 44.99550000
116 1 14.99850000 14.99850000 54.99450000
117 1 14.99850000 14.99850000 64.99350000
118 1 14.99850000 14.99850000 74.99250000
119 1 14.99850000 14.99850000 84.99150000
120 1 14.99850000 14.99850000 94.99050000
121 1 14.99850000 24.99750000 4.99950000
122 1 14.99850000 24.99750000 14.99850000
123 1 14.99850000 24.99750000 24.99750000
124 1 14.99850000 24.99750000 34.99650000
125 1 14.99850000 24.99750000 44.99550000
126 1 14.99850000 24.99750000 54.99450000
127 1 14.99850000 24.99750000 64.99350000
128 1 14.99850000 24.99750000 74.99250000
129 1 14.99850000 24.99750000 84.99150000
130 1 14.99850000 24.99750000 94.99050000
131 1 14.99850000 34.99650000 4.99950000
132 1 14.99850000 34.99650000 14.99850000
133 1 14.99850000 34.99650000 24.99750000
134 1 14.99850000 34.99650000 34.99650000
135 1 14.99850000 34.99650000 44.99550000
136 1 14.99850000 34.99650000 54.99450000
137 1 14.99850000 34.99650000 64.99350000
138 1 14.99850000 34.99650000 74.99250000
139 1 14.99850000 34.99650000 84.99150000
140 1 14.99850000 34.99650000 94.99050000
141 1 14.99850000 44.99550000 4.99950000
142 1 14.99850000 44.99550000 14.99850000
143 1 14.99850000 44.99550000 24.99750000
144 1 14.99850000 44.99550000 34.99650000
145 1 14.99850000 44.99550000 44.99550000
146 1 14.99850000 44.99550000 54.99450000
147 1 14.99850000 44.99550000 64.99350000
148 1 14.99850000 44.99550000 74.99250000
149 1 14.99850000 44.99550000 84.99150000
150 1 14.99850000 44.99550000 94.99050000
151 1 14.99850000 54.99450000 4.99950000
152 1 14.99850000 54.99450000 14.99850000
153 1 14.99850000 54.99450000 24.99750000
154 1 14.99850000 54.99450000 34.99650000
155 1 14.99850000 54.99450000 44.99550000
156 1 14.99850000 54.99450000 54.99450000
157 1 14.99850000 54.99450000 64.99350000
158 1 14.99850000 54.99450000 74.99250000
159 1 14.99850000 54.99450000 84.99150000
160 1 14.99850000 54.99450000 94.99050000
161 1 14.99850000 64.99350000 4.99950000
162 1 14.99850000 64.99350000 14.99850000
163 1 14.99850000 64.99350000 24.99750000
164 1 14.99850000 64.99350000 34.99650000
165 1 14.99850000 64.99350000 44.99550000
166 1 14.99850000 64.99350000 54.99450000
167 1 14.99850000 64.99350000 64.99350000
168 1 14.99850000 64.99350000 74.99250000
169 1 14.99850000 64.99350000 84.99150000
170 1 14.99850000 64.99350000 94.99050000
171 1 14.99850000 74.99250000 4.99950000
172 1 14.99850000 74.99250000 14.99850000
173 1 14.99850000 74.99250000 24.99750000
174 1 14.99850000 74.99250000 34.99650000
175 1 14.99850000 74.99250000 44.99550000
176 1 14.99850000 74.99250000 54.99450000
177 1 14.99850000 74.99250000 64.99350000
178 1 14.99850000 74.99250000 74.99250000
179 1 14.99850000 74.99250000 84.99150000
180 1 14.99850000 74.99250000 94.99050000
181 1 14.99850000 84.99150000 4.99950000
182 1 14.99850000 84.99150000 14.99850000
183 1 14.99850000 84.99150000 24.99750000
184 1 14.99850000 84.99150000 34.99650000
185 1 14.99850000 84.99150000 44.99550000
186 1 14.99850000 84.99150000 54.99450000
187 1 14.99850000 84.99150000 64.99350000
188 1 14.99850000 84.99150000 74.99250000
189 1 14.99850000 84.99150000 84.99150000
190 1 14.99850000 84.99150000 94.99050000
191 1 14.99850000 94.99050000 4.99950000
192 1 14.99850000 94.99050000 14.99850000
193 1 14.99850000 94.99050000 24.99750000
194 1 14.99850000 94.99050000 34.99650000
195 1 14.99850000 94.99050000 44.99550000
196 1 14.99850000 94.99050000 54.99450000
197 1 14.99850000 94.99050000 64.99350000
198 1 14.99850000 94.99050000 74.99250000
199 1 14.99850000 94.99050000 84.99150000
200 1 14.99850000 94.99050000 94.99050000
201 1 24.99750000 4.99950000 4.99950000
202 1 24.99750000 4.99950000 14.99850000
203 1 24.99750000 4.99950000 24.99750000
204 1 24.99750000 4.99950000 34.99650000
205 1 24.99750000 4.99950000 44.99550000
206 1 24.99750000 4.99950000 54.99450000
207 1 24.99750000 4.99950000 64.99350000
208 1 24.99750000 4.99950000 74.99250000
209 1 24.99750000 4.99950000 84.99150000
210 1 24.99750000 4.99950000 94.99050000
211 1 24.99750000 14.99850000 4.99950000
212 1 24.99750000 14.99850000 14.99850000
213 1 24.99750000 14.99850000 24.99750000
214 1 24.99750000 14.99850000 34.99650000
215 1 24.99750000 14.99850000 44.99550000
216 1 24.99750000 14.99850000 54.99450000
217 1 24.99750000 14.99850000 64.99350000
218 1 24.99750000 14.99850000 74.99250000
219 1 24.99750000 14.99850000 84.99150000
220 1 24.99750000 14.99850000 94.99050000
221 1 24.99750000 24.99750000 4.99950000
222 1 24.99750000 24.99750000 14.99850000
223 1 24.99750000 24.99750000 24.99750000
224 1 24.99750000 24.99750000 34.99650000
225 1 24.99750000 24.99750000 44.99550000
226 1 24.99750000 24.99750000 54.99450000
227 1 24.99750000 24.99750000 64.99350000
228 1 24.99750000 24.99750000 74.99250000
229 1 24.99750000 24.99750000 84.99150000
230 1 24.99750000 24.99750000 94.99050000
231 1 24.99750000 34.99650000 4.99950000
232 1 24.99750000 34.99650000 14.99850000
233 1 24.99750000 34.99650000 24.99750000
234 1 24.99750000 34.99650000 34.99650000
235 1 24.99750000 34.99650000 44.99550000
236 1 24.99750000 34.99650000 54.99450000
237 1 24.99750000 34.99650000 64.99350000
238 1 24.99750000 34.99650000 74.99250000
239 1 24.99750000 34.99650000 84.99150000
240 1 24.99750000 34.99650000 94.99050000
241 1 24.99750000 44.99550000 4.99950000
242 1 24.99750000 44.99550000 14.99850000
243 1 24.99750000 44.99550000 24.99750000
244 1 24.99750000 44.99550000 34.99650000
245 1 24.99750000 44.99550000 44.99550000
246 1 24.99750000 44.99550000 54.99450000
247 1 24.99750000 44.99550000 64.99350000
248 1 24.99750000 44.99550000 74.99250000
249 1 24.99750000 44.99550000 84.99150000
250 1 24.99750000 44.99550000 94.99050000
251 1 24.99750000 54.99450000 4.99950000
252 1 24.99750000 54.99450000 14.99850000
253 1 24.99750000 54.99450000 24.99750000
254 1 24.99750000 54.99450000 34.99650000
255 1 24.99750000 54.99450000 44.99550000
256 1 24.99750000 54.99450000 54.99450000
257 1 24.99750000 54.99450000 64.99350000
258 1 24.99750000 54.99450000 74.99250000
259 1 24.99750000 54.99450000 84.99150000
260 1 24.99750000 54.99450000 94.99050000
261 1 24.99750000 64.99350000 4.99950000
262 1 24.99750000 64.99350000 14.99850000
263 1 24.99750000 64.99350000 24.99750000
264 1 24.99750000 64.99350000 34.99650000
265 1 24.99750000 64.99350000 44.99550000
266 1 24.99750000 64.99350000 54.99450000
267 1 24.99750000 64.99350000 64.99350000
268 1 24.99750000 64.99350000 74.99250000
269 1 24.99750000 64.99350000 84.99150000
270 1 24.99750000 64.99350000 94.99050000
271 1 24.99750000 74.99250000 4.99950000
272 1 24.99750000 74.99250000 14.99850000
273 1 24.99750000 74.99250000 24.99750000
274 1 24.99750000 74.99250000 34.99650000
275 1 24.99750000 74.99250000 44.99550000
276 1 24.99750000 74.99250000 54.99450000
277 1 24.99750000 74.99250000 64.99350000
278 1 24.99750000 74.99250000 74.99250000
279 1 24.99750000 74.99250000 84.99150000
280 1 24.99750000 74.99250000 94.99050000
281 1 24.99750000 84.99150000 4.99950000
282 1 24.99750000 84.99150000 14.99850000
283 1 24.99750000 84.99150000 24.99750000
284 1 24.99750000 84.99150000 34.99650000
285 1 24.99750000 84.99150000 44.99550000
286 1 24.99750000 84.99150000 54.99450000
287 1 24.99750000 84.99150000 64.99350000
288 1 24.99750000 84.99150000 74.99250000
289 1 24.99750000 84.99150000 84.99150000
290 1 24.99750000 84.99150000 94.99050000
291 1 24.99750000 94.99050000 4.99950000
292 1 24.99750000 94.99050000 14.99850000
293 1 24.99750000 94.99050000 24.99750000
294 1 24.99750000 94.99050000 34.99650000
295 1 24.99750000 94.99050000 44.99550000
296 1 24.99750000 94.99050000 54.99450000
297 1 24.99750000 94.99050000 64.99350000
298 1 24.99750000 94.99050000 74.99250000
299 1 24.99750000 94.99050000 84.99150000
300 1 24.99750000 94.99050000 94.99050000
301 1 34.99650000 4.99950000 4.99950000
302 1 34.99650000 4.99950000 14.99850000
303 1 34.99650000 4.99950000 24.99750000
304 1 34.99650000 4.99950000 34.99650000
305 1 34.99650000 4.99950000 44.99550000
306 1 34.99650000 4.99950000 54.99450000
307 1 34.99650000 4.99950000 64.99350000
308 1 34.99650000 4.99950000 74.99250000
309 1 34.99650000 4.99950000 84.99150000
310 1 34.99650000 4.99950000 94.99050000
311 1 34.99650000 14.99850000 4.99950000
312 1 34.99650000 14.99850000 14.99850000
313 1 34.99650000 14.99850000 24.99750000
314 1 34.99650000 14.99850000 34.99650000
315 1 34.99650000 14.99850000 44.99550000
316 1 34.99650000 14.99850000 54.99450000
317 1 34.99650000 14.99850000 64.99350000
318 1 34.99650000 14.99850000 74.99250000
319 1 34.99650000 14.99850000 84.99150000
320 1 34.99650000 14.99850000 94.99050000
321 1 34.99650000 24.99750000 4.99950000
322 1 34.99650000 24.99750000 14.99850000
323 1 34.99650000 24.99750000 24.99750000
324 1 34.99650000 24.99750000 34.99650000
325 1 34.99650000 24.99750000 44.99550000
326 1 34.99650000 24.99750000 54.99450000
327 1 34.99650000 24.99750000 64.99350000
328 1 34.99650000 24.99750000 74.99250000
329 1 34.99650000 24.99750000 84.99150000
330 1 34.99650000 24.99750000 94.99050000
331 1 34.99650000 34.99650000 4.99950000
332 1 34.99650000 34.99650000 14.99850000
333 1 34.99650000 34.99650000 24.99750000
334 1 34.99650000 34.99650000 34.99650000
335 1 34.99650000 34.99650000 44.99550000
336 1 34.99650000 34.99650000 54.99450000
337 1 34.99650000 34.99650000 64.99350000
338 1 34.99650000 34.99650000 74.99250000
339 1 34.99650000 34.99650000 84.99150000
340 1 34.99650000 34.99650000 94.99050000
341 1 34.99650000 44.99550000 4.99950000
342 1 34.99650000 44.99550000 14.99850000
343 1 34.99650000 44.99550000 24.99750000
344 1 34.99650000 44.99550000 34.99650000
345 1 34.99650000 44.99550000 44.99550000
346 1 34.99650000 44.99550000 54.99450000
347 1 34.99650000 44.99550000 64.99350000
348 1 34.99650000 44.99550000 74.99250000
349 1 34.99650000 44.99550000 84.99150000
350 1 34.99650000 44.99550000 94.99050000
351 1 34.99650000 54.99450000 4.99950000
352 1 34.99650000 54.99450000 14.99850000
353 1 34.99650000 54.99450000 24.99750000
354 1 34.99650000 54.99450000 34.99650000
355 1 34.99650000 54.99450000 44.99550000
356 1 34.99650000 54.99450000 54.99450000
357 1 34.99650000 54.99450000 64.99350000
358 1 34.99650000 54.99450000 74.99250000
359 1 34.99650000 54.99450000 84.99150000
360 1 34.99650000 54.99450000 94.99050000
361 1 34.99650000 64.99350000 4.99950000
362 1 34.99650000 64.99350000 14.99850000
363 1 34.99650000 64.99350000 24.99750000
364 1 34.99650000 64.99350000 34.99650000
365 1 34.99650000 64.99350000 44.99550000
366 1 34.99650000 64.99350000 54.99450000
367 1 34.99650000 64.99350000 64.99350000
368 1 34.99650000 64.99350000 74.99250000
369 1 34.99650000 64.99350000 84.99150000
370 1 34.99650000 64.99350000 94.99050000
371 1 34.99650000 74.99250000 4.99950000
372 1 34.99650000 74.99250000 14.99850000
373 1 34.99650000 74.99250000 24.99750000
374 1 34.99650000 74.99250000 34.99650000
375 1 34.99650000 74.99250000 44.99550000
376 1 34.99650000 74.99250000 54.99450000
377 1 34.99650000 74.99250000 64.99350000
378 1 34.99650000 74.99250000 74.99250000
379 1 34.99650000 74.99250000 84.99150000
380 1 34.99650000 74.99250000 94.99050000
381 1 34.99650000 84.99150000 4.99950000
382 1 34.99650000 84.99150000 14.99850000
383 1 34.99650000 84.99150000 24.99750000
384 1 34.99650000 84.99150000 34.99650000
385 1 34.99650000 84.99150000 44.99550000
386 1 34.99650000 84.99150000 54.99450000
387 1 34.99650000 84.99150000 64.99350000
388 1 34.99650000 84.99150000 74.99250000
389 1 34.99650000 84.99150000 84.99150000
390 1 34.99650000 84.99150000 94.99050000
391 1 34.99650000 94.99050000 4.99950000
392 1 34.99650000 94.99050000 14.99850000
393 1 34.99650000 94.99050000 24.99750000
394 1 34.99650000 94.99050000 34.99650000
395 1 34.99650000 94.99050000 44.99550000
396 1 34.99650000 94.99050000 54.99450000
397 1 34.99650000 94.99050000 64.99350000
398 1 34.99650000 94.99050000 74.99250000
399 1 34.99650000 94.99050000 84.99150000
400 1 34.99650000 94.99050000 94.99050000
401 1 44.99550000 4.99950000 4.99950000
402 1 44.99550000 4.99950000 14.99850000
403 1 44.99550000 4.99950000 24.99750000
404 1 44.99550000 4.99950000 34.99650000
405 1 44.99550000 4.99950000 44.99550000
406 1 44.99550000 4.99950000 54.99450000
407 1 44.99550000 4.99950000 64.99350000
408 1 44.99550000 4.99950000 74.99250000
409 1 44.99550000 4.99950000 84.99150000
410 1 44.99550000 4.99950000 94.99050000
411 1 44.99550000 14.99850000 4.99950000
412 1 44.99550000 14.99850000 14.99850000
413 1 44.99550000 14.99850000 24.99750000
414 1 44.99550000 14.99850000 34.99650000
415 1 44.99550000 14.99850000 44.99550000
416 1 44.99550000 14.99850000 54.99450000
417 1 44.99550000 14.99850000 64.99350000
418 1 44.99550000 14.99850000 74.99250000
419 1 44.99550000 14.99850000 84.99150000
420 1 44.99550000 14.99850000 94.99050000
421 1 44.99550000 24.99750000 4.99950000
422 1 44.99550000 24.99750000 14.99850000
423 1 44.99550000 24.99750000 24.99750000
424 1 44.99550000 24.99750000 34.99650000
425 1 44.99550000 24.99750000 44.99550000
426 1 44.99550000 24.99750000 54.99450000
427 1 44.99550000 24.99750000 64.99350000
428 1 44.99550000 24.99750000 74.99250000
429 1 44.99550000 24.99750000 84.99150000
430 1 44.99550000 24.99750000 94.99050000
431 1 44.99550000 34.99650000 4.99950000
432 1 44.99550000 34.99650000 14.99850000
433 1 44.99550000 34.99650000 24.99750000
434 1 44.99550000 34.99650000 34.99650000
435 1 44.99550000 34.99650000 44.99550000
436 1 44.99550000 34.99650000 54.99450000
437 1 44.99550000 34.99650000 64.99350000
438 1 44.99550000 34.99650000 74.99250000
439 1 44.99550000 34.99650000 84.99150000
440 1 44.99550000 34.99650000 94.99050000
441 1 44.99550000 44.99550000 4.99950000
442 1 44.99550000 44.99550000 14.99850000
443 1 44.99550000 44.99550000 24.99750000
444 1 44.99550000 44.99550000 34.99650000
445 1 44.99550000 44.99550000 44.99550000
446 1 44.99550000 44.99550000 54.99450000
447 1 44.99550000 44.99550000 64.99350000
448 1 44.99550000 44.99550000 74.99250000
449 1 44.99550000 44.99550000 84.99150000
450 1 44.99550000 44.99550000 94.99050000
451 1 44.99550000 54.99450000 4.99950000
452 1 44.99550000 54.99450000 14.99850000
453 1 44.99550000 54.99450000 24.99750000
454 1 44.99550000 54.99450000 34.99650000
455 1 44.99550000 54.99450000 44.99550000
456 1 44.99550000 54.99450000 54.99450000
457 1 44.99550000 54.99450000 64.99350000
458 1 44.99550000 54.99450000 74.99250000
459 1 44.99550000 54.99450000 84.99150000
460 1 44.99550000 54.99450000 94.99050000
461 1 44.99550000 64.99350000 4.99950000
462 1 44.99550000 64.99350000 14.99850000
463 1 44.99550000 64.99350000 24.99750000
464 1 44.99550000 64.99350000 34.99650000
465 1 44.99550000 64.99350000 44.99550000
466 1 44.99550000 64.99350000 54.99450000
467 1 44.99550000 64.99350000 64.99350000
468 1 44.99550000 64.99350000 74.99250000
469 1 44.99550000 64.99350000 84.99150000
470 1 44.99550000 64.99350000 94.99050000
471 1 44.99550000 74.99250000 4.99950000
472 1 44.99550000 74.99250000 14.99850000
473 1 44.99550000 74.99250000 24.99750000
474 1 44.99550000 74.99250000 34.99650000
475 1 44.99550000 74.99250000 44.99550000
476 1 44.99550000 74.99250000 54.99450000
477 1 44.99550000 74.99250000 64.99350000
478 1 44.99550000 74.99250000 74.99250000
479 1 44.99550000 74.99250000 84.99150000
480 1 44.99550000 74.99250000 94.99050000
481 1 44.99550000 84.99150000 4.99950000
482 1 44.99550000 84.99150000 14.99850000
483 1 44.99550000 84.99150000 24.99750000
484 1 44.99550000 84.99150000 34.99650000
485 1 44.99550000 84.99150000 44.99550000
486 1 44.99550000 84.99150000 54.99450000
487 1 44.99550000 84.99150000 64.99350000
488 1 44.99550000 84.99150000 74.99250000
489 1 44.99550000 84.99150000 84.99150000
490 1 44.99550000 84.99150000 94.99050000
491 1 44.99550000 94.99050000 4.99950000
492 1 44.99550000 94.99050000 14.99850000
493 1 44.99550000 94.99050000 24.99750000
494 1 44.99550000 94.99050000 34.99650000
495 1 44.99550000 94.99050000 44.99550000
496 1 44.99550000 94.99050000 54.99450000
497 1 44.99550000 94.99050000 64.99350000
498 1 44.99550000 94.99050000 74.99250000
499 1 44.99550000 94.99050000 84.99150000
500 1 44.99550000 94.99050000 94.99050000
501 1 54.99450000 4.99950000 4.99950000
502 1 54.99450000 4.99950000 14.99850000
503 1 54.99450000 4.99950000 24.99750000
504 1 54.99450000 4.99950000 34.99650000
505 1 54.99450000 4.99950000 44.99550000
506 1 54.99450000 4.99950000 54.99450000
507 1 54.99450000 4.99950000 64.99350000
508 1 54.99450000 4.99950000 74.99250000
509 1 54.99450000 4.99950000 84.99150000
510 1 54.99450000 4.99950000 94.99050000
511 1 54.99450000 14.99850000 4.99950000
512 1 54.99450000 14.99850000 14.99850000
513 1 54.99450000 14.99850000 24.99750000
514 1 54.99450000 14.99850000 34.99650000
515 1 54.99450000 14.99850000 44.99550000
516 1 54.99450000 14.99850000 54.99450000
517 1 54.99450000 14.99850000 64.99350000
518 1 54.99450000 14.99850000 74.99250000
519 1 54.99450000 14.99850000 84.99150000
520 1 54.99450000 14.99850000 94.99050000
521 1 54.99450000 24.99750000 4.99950000
522 1 54.99450000 24.99750000 14.99850000
523 1 54.99450000 24.99750000 24.99750000
524 1 54.99450000 24.99750000 34.99650000
525 1 54.99450000 24.99750000 44.99550000
526 1 54.99450000 24.99750000 54.99450000
527 1 54.99450000 24.99750000 64.99350000
528 1 54.99450000 24.99750000 74.99250000
529 1 54.99450000 24.99750000 84.99150000
530 1 54.99450000 24.99750000 94.99050000
531 1 54.99450000 34.99650000 4.99950000
532 1 54.99450000 34.99650000 14.99850000
533 1 54.99450000 34.99650000 24.99750000
534 1 54.99450000 34.99650000 34.99650000
535 1 54.99450000 34.99650000 44.99550000
536 1 54.99450000 34.99650000 54.99450000
537 1 54.99450000 34.99650000 64.99350000
538 1 54.99450000 34.99650000 74.99250000
539 1 54.99450000 34.99650000 84.99150000
540 1 54.99450000 34.99650000 94.99050000
541 1 54.99450000 44.99550000 4.99950000
542 1 54.99450000 44.99550000 14.99850000
543 1 54.99450000 44.99550000 24.99750000
544 1 54.99450000 44.99550000 34.99650000
545 1 54.99450000 44.99550000 44.99550000
546 1 54.99450000 44.99550000 54.99450000
547 1 54.99450000 44.99550000 64.99350000
548 1 54.99450000 44.99550000 74.99250000
549 1 54.99450000 44.99550000 84.99150000
550 1 54.99450000 44.99550000 94.99050000
551 1 54.99450000 54.99450000 4.99950000
552 1 54.99450000 54.99450000 14.99850000
553 1 54.99450000 54.99450000 24.99750000
554 1 54.99450000 54.99450000 34.99650000
555 1 54.99450000 54.99450000 44.99550000
556 1 54.99450000 54.99450000 54.99450000
557 1 54.99450000 54.99450000 64.99350000
558 1 54.99450000 54.99450000 74.99250000
559 1 54.99450000 54.99450000 84.99150000
560 1 54.99450000 54.99450000 94.99050000
561 1 54.99450000 64.99350000 4.99950000
562 1 54.99450000 64.99350000 14.99850000
563 1 54.99450000 64.99350000 24.99750000
564 1 54.99450000 64.99350000 34.99650000
565 1 54.99450000 64.99350000 44.99550000
566 1 54.99450000 64.99350000 54.99450000
567 1 54.99450000 64.99350000 64.99350000
568 1 54.99450000 64.99350000 74.99250000
569 1 54.99450000 64.99350000 84.99150000
570 1 54.99450000 64.99350000 94.99050000
571 1 54.99450000 74.99250000 4.99950000
572 1 54.99450000 74.99250000 14.99850000
573 1 54.99450000 74.99250000 24.99750000
574 1 54.99450000 74.99250000 34.99650000
575 1 54.99450000 74.99250000 44.99550000
576 1 54.99450000 74.99250000 54.99450000
577 1 54.99450000 74.99250000 64.99350000
578 1 54.99450000 74.99250000 74.99250000
579 1 54.99450000 74.99250000 84.99150000
580 1 54.99450000 74.99250000 94.99050000
581 1 54.99450000 84.99150000 4.99950000
582 1 54.99450000 84.99150000 14.99850000
583 1 54.99450000 84.99150000 24.99750000
584 1 54.99450000 84.99150000 34.99650000
585 1 54.99450000 84.99150000 44.99550000
586 1 54.99450000 84.99150000 54.99450000
587 1 54.99450000 84.99150000 64.99350000
588 1 54.99450000 84.99150000 74.99250000
589 1 54.99450000 84.99150000 84.99150000
590 1 54.99450000 84.99150000 94.99050000
591 1 54.99450000 94.99050000 4.99950000
592 1 54.99450000 94.99050000 14.99850000
593 1 54.99450000 94.99050000 24.99750000
594 1 54.99450000 94.99050000 34.99650000
595 1 54.99450000 94.99050000 44.99550000
596 1 54.99450000 94.99050000 54.99450000
597 1 54.99450000 94.99050000 64.99350000
598 1 54.99450000 94.99050000 74.99250000
599 1 54.99450000 94.99050000 84.99150000
600 1 54.99450000 94.99050000 94.99050000
601 1 64.99350000 4.99950000 4.99950000
602 1 64.99350000 4.99950000 14.99850000
603 1 64.99350000 4.99950000 24.99750000
604 1 64.99350000 4.99950000 34.99650000
605 1 64.99350000 4.99950000 44.99550000
606 1 64.99350000 4.99950000 54.99450000
607 1 64.99350000 4.99950000 64.99350000
608 1 64.99350000 4.99950000 74.99250000
609 1 64.99350000 4.99950000 84.99150000
610 1 64.99350000 4.99950000 94.99050000
611 1 64.99350000 14.99850000 4.99950000
612 1 64.99350000 14.99850000 14.99850000
613 1 64.99350000 14.99850000 24.99750000
614 1 64.99350000 14.99850000 34.99650000
615 1 64.99350000 14.99850000 44.99550000
616 1 64.99350000 14.99850000 54.99450000
617 1 64.99350000 14.99850000 64.99350000
618 1 64.99350000 14.99850000 74.99250000
619 1 64.99350000 14.99850000 84.99150000
620 1 64.99350000 14.99850000 94.99050000
621 1 64.99350000 24.99750000 4.99950000
622 1 64.99350000 24.99750000 14.99850000
623 1 64.99350000 24.99750000 24.99750000
624 1 64.99350000 24.99750000 34.99650000
625 1 64.99350000 24.99750000 44.99550000
626 1 64.99350000 24.99750000 54.99450000
627 1 64.99350000 24.99750000 64.99350000
628 1 64.99350000 24.99750000 74.99250000
629 1 64.99350000 24.99750000 84.99150000
630 1 64.99350000 24.99750000 94.99050000
631 1 64.99350000 34.99650000 4.99950000
632 1 64.99350000 34.99650000 14.99850000
633 1 64.99350000 34.99650000 24.99750000
634 1 64.99350000 34.99650000 34.99650000
635 1 64.99350000 34.99650000 44.99550000
636 1 64.99350000 34.99650000 54.99450000
637 1 64.99350000 34.99650000 64.99350000
638 1 64.99350000 34.99650000 74.99250000
639 1 64.99350000 34.99650000 84.99150000
640 1 64.99350000 34.99650000 94.99050000
641 1 64.99350000 44.99550000 4.99950000
642 1 64.99350000 44.99550000 14.99850000
643 1 64.99350000 44.99550000 24.99750000
644 1 64.99350000 44.99550000 34.99650000
645 1 64.99350000 44.99550000 44.99550000
646 1 64.99350000 44.99550000 54.99450000
647 1 64.99350000 44.99550000 64.99350000
648 1 64.99350000 44.99550000 74.99250000
649 1 64.99350000 44.99550000 84.99150000
650 1 64.99350000 44.99550000 94.99050000
651 1 64.99350000 54.99450000 4.99950000
652 1 64.99350000 54.99450000 14.99850000
653 1 64.99350000 54.99450000 24.99750000
654 1 64.99350000 54.99450000 34.99650000
655 1 64.99350000 54.99450000 44.99550000
656 1 64.99350000 54.99450000 54.99450000
657 1 64.99350000 54.99450000 64.99350000
658 1 64.99350000 54.99450000 74.99250000
659 1 64.99350000 54.99450000 84.99150000
660 1 64.99350000 54.99450000 94.99050000
661 1 64.99350000 64.99350000 4.99950000
662 1 64.99350000 64.99350000 14.99850000
663 1 64.99350000 64.99350000 24.99750000
664 1 64.99350000 64.99350000 34.99650000
665 1 64.99350000 64.99350000 44.99550000
666 1 64.99350000 64.99350000 54.99450000
667 1 64.99350000 64.99350000 64.99350000
668 1 64.99350000 64.99350000 74.99250000
669 1 64.99350000 64.99350000 84.99150000
670 1 64.99350000 64.99350000 94.99050000
671 1 64.99350000 74.99250000 4.99950000
672 1 64.99350000 74.99250000 14.99850000
673 1 64.99350000 74.99250000 24.99750000
674 1 64.99350000 74.99250000 34.99650000
675 1 64.99350000 74.99250000 44.99550000
676 1 64.99350000 74.99250000 54.99450000
677 1 64.99350000 74.99250000 64.99350000
678 1 64.99350000 74.99250000 74.99250000
679 1 64.99350000 74.99250000 84.99150000
680 1 64.99350000 74.99250000 94.99050000
681 1 64.99350000 84.99150000 4.99950000
682 1 64.99350000 84.99150000 14.99850000
683 1 64.99350000 84.99150000 24.99750000
684 1 64.99350000 84.99150000 34.99650000
685 1 64.99350000 84.99150000 44.99550000
686 1 64.99350000 84.99150000 54.99450000
687 1 64.99350000 84.99150000 64.99350000
688 1 64.99350000 84.99150000 74.99250000
689 1 64.99350000 84.99150000 84.99150000
690 1 64.99350000 84.99150000 94.99050000
691 1 64.99350000 94.99050000 4.99950000
692 1 64.99350000 94.99050000 14.99850000
693 1 64.99350000 94.99050000 24.99750000
694 1 64.99350000 94.99050000 34.99650000
695 1 64.99350000 94.99050000 44.99550000
696 1 64.99350000 94.99050000 54.99450000
697 1 64.99350000 94.99050000 64.99350000
698 1 64.99350000 94.99050000 74.99250000
699 1 64.99350000 94.99050000 84.99150000
700 1 64.99350000 94.99050000 94.99050000
701 1 74.99250000 4.99950000 4.99950000
702 1 74.99250000 4.99950000 14.99850000
703 1 74.99250000 4.99950000 24.99750000
704 1 74.99250000 4.99950000 34.99650000
705 1 74.99250000 4.99950000 44.99550000
706 1 74.99250000 4.99950000 54.99450000
707 1 74.99250000 4.99950000 64.99350000
708 1 74.99250000 4.99950000 74.99250000
709 1 74.99250000 4.99950000 84.99150000
710 1 74.99250000 4.99950000 94.99050000
711 1 74.99250000 14.99850000 4.99950000
712 1 74.99250000 14.99850000 14.99850000
713 1 74.99250000 14.99850000 24.99750000
714 1 74.99250000 14.99850000 34.99650000
715 1 74.99250000 14.99850000 44.99550000
716 1 74.99250000 14.99850000 54.99450000
717 1 74.99250000 14.99850000 64.99350000
718 1 74.99250000 14.99850000 74.99250000
719 1 74.99250000 14.99850000 84.99150000