LAMMPS Simulation Data
512 atoms
2 atom types

0 50.4 xlo xhi 
0 50.4 ylo yhi 
0 50.4 zlo zhi 

Masses

1 1.0
2 1.0

Atoms

1 1 3.15000000 3.15000000 3.15000000
2 1 3.15000000 3.15000000 9.45000000
3 1 3.15000000 3.15000000 15.75000000
4 1 3.15000000 3.15000000 22.05000000
5 1 3.15000000 3.15000000 28.35000000
6 1 3.15000000 3.15000000 34.65000000
7 1 3.15000000 3.15000000 40.95000000
8 1 3.15000000 3.15000000 47.25000000
9 1 3.15000000 9.45000000 3.15000000
10 1 3.15000000 9.45000000 9.45000000
11 1 3.15000000 9.45000000 15.75000000
12 1 3.15000000 9.45000000 22.05000000
13 1 3.15000000 9.45000000 28.35000000
14 1 3.15000000 9.45000000 34.65000000
15 1 3.15000000 9.45000000 40.95000000
16 1 3.15000000 9.45000000 47.25000000
17 1 3.15000000 15.75000000 3.15000000
18 1 3.15000000 15.75000000 9.45000000
19 1 3.15000000 15.75000000 15.75000000
20 1 3.15000000 15.75000000 22.05000000
21 1 3.15000000 15.75000000 28.35000000
22 1 3.15000000 15.75000000 34.65000000
23 1 3.15000000 15.75000000 40.95000000
24 1 3.15000000 15.75000000 47.25000000
25 1 3.15000000 22.05000000 3.15000000
26 1 3.15000000 22.05000000 9.45000000
27 1 3.15000000 22.05000000 15.75000000
28 1 3.15000000 22.05000000 22.05000000
29 1 3.15000000 22.05000000 28.35000000
30 1 3.15000000 22.05000000 34.65000000
31 1 3.15000000 22.05000000 40.95000000
32 1 3.15000000 22.05000000 47.25000000
33 1 3.15000000 28.35000000 3.15000000
34 1 3.15000000 28.35000000 9.45000000
35 1 3.15000000 28.35000000 15.75000000
36 1 3.15000000 28.35000000 22.05000000
37 1 3.15000000 28.35000000 28.35000000
38 1 3.15000000 28.35000000 34.65000000
39 1 3.15000000 28.35000000 40.95000000
40 1 3.15000000 28.35000000 47.25000000
41 1 3.15000000 34.65000000 3.15000000
42 1 3.15000000 34.65000000 9.45000000
43 1 3.15000000 34.65000000 15.75000000
44 1 3.15000000 34.65000000 22.05000000
45 1 3.15000000 34.65000000 28.35000000
46 1 3.15000000 34.65000000 34.65000000
47 1 3.15000000 34.65000000 40.95000000
48 1 3.15000000 34.65000000 47.25000000
49 1 3.15000000 40.95000000 3.15000000
50 1 3.15000000 40.95000000 9.45000000
51 1 3.15000000 40.95000000 15.75000000
52 1 3.15000000 40.95000000 22.05000000
53 1 3.15000000 40.95000000 28.35000000
54 1 3.15000000 40.95000000 34.65000000
55 1 3.15000000 40.95000000 40.95000000
56 1 3.15000000 40.95000000 47.25000000
57 1 3.15000000 47.25000000 3.15000000
58 1 3.15000000 47.25000000 9.45000000
59 1 3.15000000 47.25000000 15.75000000
60 1 3.15000000 47.25000000 22.05000000
61 1 3.15000000 47.25000000 28.35000000
62 1 3.15000000 47.25000000 34.65000000
63 1 3.15000000 47.25000000 40.95000000
64 1 3.15000000 47.25000000 47.25000000
65 1 9.45000000 3.15000000 3.15000000
66 1 9.45000000 3.15000000 9.45000000
67 1 9.45000000 3.15000000 15.75000000
68 1 9.45000000 3.15000000 22.05000000
69 1 9.45000000 3.15000000 28.35000000
70 1 9.45000000 3.15000000 34.65000000
71 1 9.45000000 3.15000000 40.95000000
72 1 9.45000000 3.15000000 47.25000000
73 1 9.45000000 9.45000000 3.15000000
74 1 9.45000000 9.45000000 9.45000000
75 1 9.45000000 9.45000000 15.75000000
76 1 9.45000000 9.45000000 22.05000000
77 1 9.45000000 9.45000000 28.35000000
78 1 9.45000000 9.45000000 34.65000000
79 1 9.45000000 9.45000000 40.95000000
80 1 9.45000000 9.45000000 47.25000000
81 1 9.45000000 15.75000000 3.15000000
82 1 9.45000000 15.75000000 9.45000000
83 1 9.45000000 15.75000000 15.75000000
84 1 9.45000000 15.75000000 22.05000000
85 1 9.45000000 15.75000000 28.35000000
86 1 9.45000000 15.75000000 34.65000000
87 1 9.45000000 15.75000000 40.95000000
88 1 9.45000000 15.75000000 47.25000000
89 1 9.45000000 22.05000000 3.15000000
90 1 9.45000000 22.05000000 9.45000000
91 1 9.45000000 22.05000000 15.75000000
92 1 9.45000000 22.05000000 22.05000000
93 1 9.45000000 22.05000000 28.35000000
94 1 9.45000000 22.05000000 34.65000000
95 1 9.45000000 22.05000000 40.95000000
96 1 9.45000000 22.05000000 47.25000000
97 1 9.45000000 28.35000000 3.15000000
98 1 9.45000000 28.35000000 9.45000000
99 1 9.45000000 28.35000000 15.75000000
100 1 9.45000000 28.35000000 22.05000000
101 1 9.45000000 28.35000000 28.35000000
102 1 9.45000000 28.35000000 34.65000000
103 1 9.45000000 28.35000000 40.95000000
104 1 9.45000000 28.35000000 47.25000000
105 1 9.45000000 34.65000000 3.15000000
106 1 9.45000000 34.65000000 9.45000000
107 1 9.45000000 34.65000000 15.75000000
108 1 9.45000000 34.65000000 22.05000000
109 1 9.45000000 34.65000000 28.35000000
110 1 9.45000000 34.65000000 34.65000000
111 1 9.45000000 34.65000000 40.95000000
112 1 9.45000000 34.65000000 47.25000000
113 1 9.45000000 40.95000000 3.15000000
114 1 9.45000000 40.95000000 9.45000000
115 1 9.45000000 40.95000000 15.75000000
116 1 9.45000000 40.95000000 22.05000000
117 1 9.45000000 40.95000000 28.35000000
118 1 9.45000000 40.95000000 34.65000000
119 1 9.45000000 40.95000000 40.95000000
120 1 9.45000000 40.95000000 47.25000000
121 1 9.45000000 47.25000000 3.15000000
122 1 9.45000000 47.25000000 9.45000000
123 1 9.45000000 47.25000000 15.75000000
124 1 9.45000000 47.25000000 22.05000000
125 1 9.45000000 47.25000000 28.35000000
126 1 9.45000000 47.25000000 34.65000000
127 1 9.45000000 47.25000000 40.95000000
128 1 9.45000000 47.25000000 47.25000000
129 1 15.75000000 3.15000000 3.15000000
130 1 15.75000000 3.15000000 9.45000000
131 1 15.75000000 3.15000000 15.75000000
132 1 15.75000000 3.15000000 22.05000000
133 1 15.75000000 3.15000000 28.35000000
134 1 15.75000000 3.15000000 34.65000000
135 1 15.75000000 3.15000000 40.95000000
136 1 15.75000000 3.15000000 47.25000000
137 1 15.75000000 9.45000000 3.15000000
138 1 15.75000000 9.45000000 9.45000000
139 1 15.75000000 9.45000000 15.75000000
140 1 15.75000000 9.45000000 22.05000000
141 1 15.75000000 9.45000000 28.35000000
142 1 15.75000000 9.45000000 34.65000000
143 1 15.75000000 9.45000000 40.95000000
144 1 15.75000000 9.45000000 47.25000000
145 1 15.75000000 15.75000000 3.15000000
146 1 15.75000000 15.75000000 9.45000000
147 1 15.75000000 15.75000000 15.75000000
148 1 15.75000000 15.75000000 22.05000000
149 1 15.75000000 15.75000000 28.35000000
150 1 15.75000000 15.75000000 34.65000000
151 1 15.75000000 15.75000000 40.95000000
152 1 15.75000000 15.75000000 47.25000000
153 1 15.75000000 22.05000000 3.15000000
154 1 15.75000000 22.05000000 9.45000000
155 1 15.75000000 22.05000000 15.75000000
156 1 15.75000000 22.05000000 22.05000000
157 1 15.75000000 22.05000000 28.35000000
158 1 15.75000000 22.05000000 34.65000000
159 1 15.75000000 22.05000000 40.95000000
160 1 15.75000000 22.05000000 47.25000000
161 1 15.75000000 28.35000000 3.15000000
162 1 15.75000000 28.35000000 9.45000000
163 1 15.75000000 28.35000000 15.75000000
164 1 15.75000000 28.35000000 22.05000000
165 1 15.75000000 28.35000000 28.35000000
166 1 15.75000000 28.35000000 34.65000000
167 1 15.75000000 28.35000000 40.95000000
168 1 15.75000000 28.35000000 47.25000000
169 1 15.75000000 34.65000000 3.15000000
170 1 15.75000000 34.65000000 9.45000000
171 1 15.75000000 34.65000000 15.75000000
172 1 15.75000000 34.65000000 22.05000000
173 1 15.75000000 34.65000000 28.35000000
174 1 15.75000000 34.65000000 34.65000000
175 1 15.75000000 34.65000000 40.95000000
176 1 15.75000000 34.65000000 47.25000000
177 1 15.75000000 40.95000000 3.15000000
178 1 15.75000000 40.95000000 9.45000000
179 1 15.75000000 40.95000000 15.75000000
180 1 15.75000000 40.95000000 22.05000000
181 1 15.75000000 40.95000000 28.35000000
182 1 15.75000000 40.95000000 34.65000000
183 1 15.75000000 40.95000000 40.95000000
184 1 15.75000000 40.95000000 47.25000000
185 1 15.75000000 47.25000000 3.15000000
186 1 15.75000000 47.25000000 9.45000000
187 1 15.75000000 47.25000000 15.75000000
188 1 15.75000000 47.25000000 22.05000000
189 1 15.75000000 47.25000000 28.35000000
190 1 15.75000000 47.25000000 34.65000000
191 1 15.75000000 47.25000000 40.95000000
192 1 15.75000000 47.25000000 47.25000000
193 1 22.05000000 3.15000000 3.15000000
194 1 22.05000000 3.15000000 9.45000000
195 1 22.05000000 3.15000000 15.75000000
196 1 22.05000000 3.15000000 22.05000000
197 1 22.05000000 3.15000000 28.35000000
198 1 22.05000000 3.15000000 34.65000000
199 1 22.05000000 3.15000000 40.95000000
200 1 22.05000000 3.15000000 47.25000000
201 1 22.05000000 9.45000000 3.15000000
202 1 22.05000000 9.45000000 9.45000000
203 1 22.05000000 9.45000000 15.75000000
204 1 22.05000000 9.45000000 22.05000000
205 1 22.05000000 9.45000000 28.35000000
206 1 22.05000000 9.45000000 34.65000000
207 1 22.05000000 9.45000000 40.95000000
208 1 22.05000000 9.45000000 47.25000000
209 1 22.05000000 15.75000000 3.15000000
210 1 22.05000000 15.75000000 9.45000000
211 1 22.05000000 15.75000000 15.75000000
212 1 22.05000000 15.75000000 22.05000000
213 1 22.05000000 15.75000000 28.35000000
214 1 22.05000000 15.75000000 34.65000000
215 1 22.05000000 15.75000000 40.95000000
216 1 22.05000000 15.75000000 47.25000000
217 1 22.05000000 22.05000000 3.15000000
218 1 22.05000000 22.05000000 9.45000000
219 1 22.05000000 22.05000000 15.75000000
220 1 22.05000000 22.05000000 22.05000000
221 1 22.05000000 22.05000000 28.35000000
222 1 22.05000000 22.05000000 34.65000000
223 1 22.05000000 22.05000000 40.95000000
224 1 22.05000000 22.05000000 47.25000000
225 1 22.05000000 28.35000000 3.15000000
226 1 22.05000000 28.35000000 9.45000000
227 1 22.05000000 28.35000000 15.75000000
228 1 22.05000000 28.35000000 22.05000000
229 1 22.05000000 28.35000000 28.35000000
230 1 22.05000000 28.35000000 34.65000000
231 1 22.05000000 28.35000000 40.95000000
232 1 22.05000000 28.35000000 47.25000000
233 1 22.05000000 34.65000000 3.15000000
234 1 22.05000000 34.65000000 9.45000000
235 1 22.05000000 34.65000000 15.75000000
236 1 22.05000000 34.65000000 22.05000000
237 1 22.05000000 34.65000000 28.35000000
238 1 22.05000000 34.65000000 34.65000000
239 1 22.05000000 34.65000000 40.95000000
240 1 22.05000000 34.65000000 47.25000000
241 1 22.05000000 40.95000000 3.15000000
242 1 22.05000000 40.95000000 9.45000000
243 1 22.05000000 40.95000000 15.75000000
244 1 22.05000000 40.95000000 22.05000000
245 1 22.05000000 40.95000000 28.35000000
246 1 22.05000000 40.95000000 34.65000000
247 1 22.05000000 40.95000000 40.95000000
248 1 22.05000000 40.95000000 47.25000000
249 1 22.05000000 47.25000000 3.15000000
250 1 22.05000000 47.25000000 9.45000000
251 1 22.05000000 47.25000000 15.75000000
252 1 22.05000000 47.25000000 22.05000000
253 1 22.05000000 47.25000000 28.35000000
254 1 22.05000000 47.25000000 34.65000000
255 1 22.05000000 47.25000000 40.95000000
256 1 22.05000000 47.25000000 47.25000000
257 2 28.35000000 3.15000000 3.15000000
258 2 28.35000000 3.15000000 9.45000000
259 2 28.35000000 3.15000000 15.75000000
260 2 28.35000000 3.15000000 22.05000000
261 2 28.35000000 3.15000000 28.35000000
262 2 28.35000000 3.15000000 34.65000000
263 2 28.35000000 3.15000000 40.95000000
264 2 28.35000000 3.15000000 47.25000000
265 2 28.35000000 9.45000000 3.15000000
266 2 28.35000000 9.45000000 9.45000000
267 2 28.35000000 9.45000000 15.75000000
268 2 28.35000000 9.45000000 22.05000000
269 2 28.35000000 9.45000000 28.35000000
270 2 28.35000000 9.45000000 34.65000000
271 2 28.35000000 9.45000000 40.95000000
272 2 28.35000000 9.45000000 47.25000000
273 2 28.35000000 15.75000000 3.15000000
274 2 28.35000000 15.75000000 9.45000000
275 2 28.35000000 15.75000000 15.75000000
276 2 28.35000000 15.75000000 22.05000000
277 2 28.35000000 15.75000000 28.35000000
278 2 28.35000000 15.75000000 34.65000000
279 2 28.35000000 15.75000000 40.95000000
280 2 28.35000000 15.75000000 47.25000000
281 2 28.35000000 22.05000000 3.15000000
282 2 28.35000000 22.05000000 9.45000000
283 2 28.35000000 22.05000000 15.75000000
284 2 28.35000000 22.05000000 22.05000000
285 2 28.35000000 22.05000000 28.35000000
286 2 28.35000000 22.05000000 34.65000000
287 2 28.35000000 22.05000000 40.95000000
288 2 28.35000000 22.05000000 47.25000000
289 2 28.35000000 28.35000000 3.15000000
290 2 28.35000000 28.35000000 9.45000000
291 2 28.35000000 28.35000000 15.75000000
292 2 28.35000000 28.35000000 22.05000000
293 2 28.35000000 28.35000000 28.35000000
294 2 28.35000000 28.35000000 34.65000000
295 2 28.35000000 28.35000000 40.95000000
296 2 28.35000000 28.35000000 47.25000000
297 2 28.35000000 34.65000000 3.15000000
298 2 28.35000000 34.65000000 9.45000000
299 2 28.35000000 34.65000000 15.75000000
300 2 28.35000000 34.65000000 22.05000000
301 2 28.35000000 34.65000000 28.35000000
302 2 28.35000000 34.65000000 34.65000000
303 2 28.35000000 34.65000000 40.95000000
304 2 28.35000000 34.65000000 47.25000000
305 2 28.35000000 40.95000000 3.15000000
306 2 28.35000000 40.95000000 9.45000000
307 2 28.35000000 40.95000000 15.75000000
308 2 28.35000000 40.95000000 22.05000000
309 2 28.35000000 40.95000000 28.35000000
310 2 28.35000000 40.95000000 34.65000000
311 2 28.35000000 40.95000000 40.95000000
312 2 28.35000000 40.95000000 47.25000000
313 2 28.35000000 47.25000000 3.15000000
314 2 28.35000000 47.25000000 9.45000000
315 2 28.35000000 47.25000000 15.75000000
316 2 28.35000000 47.25000000 22.05000000
317 2 28.35000000 47.25000000 28.35000000
318 2 28.35000000 47.25000000 34.65000000
319 2 28.35000000 47.25000000 40.95000000
320 2 28.35000000 47.25000000 47.25000000
321 2 34.65000000 3.15000000 3.15000000
322 2 34.65000000 3.15000000 9.45000000
323 2 34.65000000 3.15000000 15.75000000
324 2 34.65000000 3.15000000 22.05000000
325 2 34.65000000 3.15000000 28.35000000
326 2 34.65000000 3.15000000 34.65000000
327 2 34.65000000 3.15000000 40.95000000
328 2 34.65000000 3.15000000 47.25000000
329 2 34.65000000 9.45000000 3.15000000
330 2 34.65000000 9.45000000 9.45000000
331 2 34.65000000 9.45000000 15.75000000
332 2 34.65000000 9.45000000 22.05000000
333 2 34.65000000 9.45000000 28.35000000
334 2 34.65000000 9.45000000 34.65000000
335 2 34.65000000 9.45000000 40.95000000
336 2 34.65000000 9.45000000 47.25000000
337 2 34.65000000 15.75000000 3.15000000
338 2 34.65000000 15.75000000 9.45000000
339 2 34.65000000 15.75000000 15.75000000
340 2 34.65000000 15.75000000 22.05000000
341 2 34.65000000 15.75000000 28.35000000
342 2 34.65000000 15.75000000 34.65000000
343 2 34.65000000 15.75000000 40.95000000
344 2 34.65000000 15.75000000 47.25000000
345 2 34.65000000 22.05000000 3.15000000
346 2 34.65000000 22.05000000 9.45000000
347 2 34.65000000 22.05000000 15.75000000
348 2 34.65000000 22.05000000 22.05000000
349 2 34.65000000 22.05000000 28.35000000
350 2 34.65000000 22.05000000 34.65000000
351 2 34.65000000 22.05000000 40.95000000
352 2 34.65000000 22.05000000 47.25000000
353 2 34.65000000 28.35000000 3.15000000
354 2 34.65000000 28.35000000 9.45000000
355 2 34.65000000 28.35000000 15.75000000
356 2 34.65000000 28.35000000 22.05000000
357 2 34.65000000 28.35000000 28.35000000
358 2 34.65000000 28.35000000 34.65000000
359 2 34.65000000 28.35000000 40.95000000
360 2 34.65000000 28.35000000 47.25000000
361 2 34.65000000 34.65000000 3.15000000
362 2 34.65000000 34.65000000 9.45000000
363 2 34.65000000 34.65000000 15.75000000
364 2 34.65000000 34.65000000 22.05000000
365 2 34.65000000 34.65000000 28.35000000
366 2 34.65000000 34.65000000 34.65000000
367 2 34.65000000 34.65000000 40.95000000
368 2 34.65000000 34.65000000 47.25000000
369 2 34.65000000 40.95000000 3.15000000
370 2 34.65000000 40.95000000 9.45000000
371 2 34.65000000 40.95000000 15.75000000
372 2 34.65000000 40.95000000 22.05000000
373 2 34.65000000 40.95000000 28.35000000
374 2 34.65000000 40.95000000 34.65000000
375 2 34.65000000 40.95000000 40.95000000
376 2 34.65000000 40.95000000 47.25000000
377 2 34.65000000 47.25000000 3.15000000
378 2 34.65000000 47.25000000 9.45000000
379 2 34.65000000 47.25000000 15.75000000
380 2 34.65000000 47.25000000 22.05000000
381 2 34.65000000 47.25000000 28.35000000
382 2 34.65000000 47.25000000 34.65000000
383 2 34.65000000 47.25000000 40.95000000
384 2 34.65000000 47.25000000 47.25000000
385 2 40.95000000 3.15000000 3.15000000
386 2 40.95000000 3.15000000 9.45000000
387 2 40.95000000 3.15000000 15.75000000
388 2 40.95000000 3.15000000 22.05000000
389 2 40.95000000 3.15000000 28.35000000
390 2 40.95000000 3.15000000 34.65000000
391 2 40.95000000 3.15000000 40.95000000
392 2 40.95000000 3.15000000 47.25000000
393 2 40.95000000 9.45000000 3.15000000
394 2 40.95000000 9.45000000 9.45000000
395 2 40.95000000 9.45000000 15.75000000
396 2 40.95000000 9.45000000 22.05000000
397 2 40.95000000 9.45000000 28.35000000
398 2 40.95000000 9.45000000 34.65000000
399 2 40.95000000 9.45000000 40.95000000
400 2 40.95000000 9.45000000 47.25000000
401 2 40.95000000 15.75000000 3.15000000
402 2 40.95000000 15.75000000 9.45000000
403 2 40.95000000 15.75000000 15.75000000
404 2 40.95000000 15.75000000 22.05000000
405 2 40.95000000 15.75000000 28.35000000
406 2 40.95000000 15.75000000 34.65000000
407 2 40.95000000 15.75000000 40.95000000
408 2 40.95000000 15.75000000 47.25000000
409 2 40.95000000 22.05000000 3.15000000
410 2 40.95000000 22.05000000 9.45000000
411 2 40.95000000 22.05000000 15.75000000
412 2 40.95000000 22.05000000 22.05000000
413 2 40.95000000 22.05000000 28.35000000
414 2 40.95000000 22.05000000 34.65000000
415 2 40.95000000 22.05000000 40.95000000
416 2 40.95000000 22.05000000 47.25000000
417 2 40.95000000 28.35000000 3.15000000
418 2 40.95000000 28.35000000 9.45000000
419 2 40.95000000 28.35000000 15.75000000
420 2 40.95000000 28.35000000 22.05000000
421 2 40.95000000 28.35000000 28.35000000
422 2 40.95000000 28.35000000 34.65000000
423 2 40.95000000 28.35000000 40.95000000
424 2 40.95000000 28.35000000 47.25000000
425 2 40.95000000 34.65000000 3.15000000
426 2 40.95000000 34.65000000 9.45000000
427 2 40.95000000 34.65000000 15.75000000
428 2 40.95000000 34.65000000 22.05000000
429 2 40.95000000 34.65000000 28.35000000
430 2 40.95000000 34.65000000 34.65000000
431 2 40.95000000 34.65000000 40.95000000
432 2 40.95000000 34.65000000 47.25000000
433 2 40.95000000 40.95000000 3.15000000
434 2 40.95000000 40.95000000 9.45000000
435 2 40.95000000 40.95000000 15.75000000
436 2 40.95000000 40.95000000 22.05000000
437 2 40.95000000 40.95000000 28.35000000
438 2 40.95000000 40.95000000 34.65000000
439 2 40.95000000 40.95000000 40.95000000
440 2 40.95000000 40.95000000 47.25000000
441 2 40.95000000 47.25000000 3.15000000
442 2 40.95000000 47.25000000 9.45000000
443 2 40.95000000 47.25000000 15.75000000
444 2 40.95000000 47.25000000 22.05000000
445 2 40.95000000 47.25000000 28.35000000
446 2 40.95000000 47.25000000 34.65000000
447 2 40.95000000 47.25000000 40.95000000
448 2 40.95000000 47.25000000 47.25000000
449 2 47.25000000 3.15000000 3.15000000
450 2 47.25000000 3.15000000 9.45000000
451 2 47.25000000 3.15000000 15.75000000
452 2 47.25000000 3.15000000 22.05000000
453 2 47.25000000 3.15000000 28.35000000
454 2 47.25000000 3.15000000 34.65000000
455 2 47.25000000 3.15000000 40.95000000
456 2 47.25000000 3.15000000 47.25000000
457 2 47.25000000 9.45000000 3.15000000
458 2 47.25000000 9.45000000 9.45000000
459 2 47.25000000 9.45000000 15.75000000
460 2 47.25000000 9.45000000 22.05000000
461 2 47.25000000 9.45000000 28.35000000
462 2 47.25000000 9.45000000 34.65000000
463 2 47.25000000 9.45000000 40.95000000
464 2 47.25000000 9.45000000 47.25000000
465 2 47.25000000 15.75000000 3.15000000
466 2 47.25000000 15.75000000 9.45000000
467 2 47.25000000 15.75000000 15.75000000
468 2 47.25000000 15.75000000 22.05000000
469 2 47.25000000 15.75000000 28.35000000
470 2 47.25000000 15.75000000 34.65000000
471 2 47.25000000 15.75000000 40.95000000
472 2 47.25000000 15.75000000 47.25000000
473 2 47.25000000 22.05000000 3.15000000
474 2 47.25000000 22.05000000 9.45000000
475 2 47.25000000 22.05000000 15.75000000
476 2 47.25000000 22.05000000 22.05000000
477 2 47.25000000 22.05000000 28.35000000
478 2 47.25000000 22.05000000 34.65000000
479 2 47.25000000 22.05000000 40.95000000
480 2 47.25000000 22.05000000 47.25000000
481 2 47.25000000 28.35000000 3.15000000
482 2 47.25000000 28.35000000 9.45000000
483 2 47.25000000 28.35000000 15.75000000
484 2 47.25000000 28.35000000 22.05000000
485 2 47.25000000 28.35000000 28.35000000
486 2 47.25000000 28.35000000 34.65000000
487 2 47.25000000 28.35000000 40.95000000
488 2 47.25000000 28.35000000 47.25000000
489 2 47.25000000 34.65000000 3.15000000
490 2 47.25000000 34.65000000 9.45000000
491 2 47.25000000 34.65000000 15.75000000
492 2 47.25000000 34.65000000 22.05000000
493 2 47.25000000 34.65000000 28.35000000
494 2 47.25000000 34.65000000 34.65000000
495 2 47.25000000 34.65000000 40.95000000
496 2 47.25000000 34.65000000 47.25000000
497 2 47.25000000 40.95000000 3.15000000
498 2 47.25000000 40.95000000 9.45000000
499 2 47.25000000 40.95000000 15.75000000
500 2 47.25000000 40.95000000 22.05000000
501 2 47.25000000 40.95000000 28.35000000
502 2 47.25000000 40.95000000 34.65000000
503 2 47.25000000 40.95000000 40.95000000
504 2 47.25000000 40.95000000 47.25000000
505 2 47.25000000 47.25000000 3.15000000
506 2 47.25000000 47.25000000 9.45000000
507 2 47.25000000 47.25000000 15.75000000
508 2 47.25000000 47.25000000 22.05000000
509 2 47.25000000 47.25000000 28.35000000
510 2 47.25000000 47.25000000 34.65000000
511 2 47.25000000 47.25000000 40.95000000
512 2 47.25000000 47.25000000 47.25000000
