LAMMPS Simulation Data
1000 atoms
2 atom types

0 43.68 xlo xhi 
0 43.68 ylo yhi 
0 43.68 zlo zhi 

Masses

1 1.0
2 1.0

Atoms

1 1 2.18400000 2.18400000 2.18400000
2 1 2.18400000 2.18400000 6.55200000
3 1 2.18400000 2.18400000 10.92000000
4 1 2.18400000 2.18400000 15.28800000
5 1 2.18400000 2.18400000 19.65600000
6 1 2.18400000 2.18400000 24.02400000
7 1 2.18400000 2.18400000 28.39200000
8 1 2.18400000 2.18400000 32.76000000
9 1 2.18400000 2.18400000 37.12800000
10 1 2.18400000 2.18400000 41.49600000
11 1 2.18400000 6.55200000 2.18400000
12 1 2.18400000 6.55200000 6.55200000
13 1 2.18400000 6.55200000 10.92000000
14 1 2.18400000 6.55200000 15.28800000
15 1 2.18400000 6.55200000 19.65600000
16 1 2.18400000 6.55200000 24.02400000
17 1 2.18400000 6.55200000 28.39200000
18 1 2.18400000 6.55200000 32.76000000
19 1 2.18400000 6.55200000 37.12800000
20 1 2.18400000 6.55200000 41.49600000
21 1 2.18400000 10.92000000 2.18400000
22 1 2.18400000 10.92000000 6.55200000
23 1 2.18400000 10.92000000 10.92000000
24 1 2.18400000 10.92000000 15.28800000
25 1 2.18400000 10.92000000 19.65600000
26 1 2.18400000 10.92000000 24.02400000
27 1 2.18400000 10.92000000 28.39200000
28 1 2.18400000 10.92000000 32.76000000
29 1 2.18400000 10.92000000 37.12800000
30 1 2.18400000 10.92000000 41.49600000
31 1 2.18400000 15.28800000 2.18400000
32 1 2.18400000 15.28800000 6.55200000
33 1 2.18400000 15.28800000 10.92000000
34 1 2.18400000 15.28800000 15.28800000
35 1 2.18400000 15.28800000 19.65600000
36 1 2.18400000 15.28800000 24.02400000
37 1 2.18400000 15.28800000 28.39200000
38 1 2.18400000 15.28800000 32.76000000
39 1 2.18400000 15.28800000 37.12800000
40 1 2.18400000 15.28800000 41.49600000
41 1 2.18400000 19.65600000 2.18400000
42 1 2.18400000 19.65600000 6.55200000
43 1 2.18400000 19.65600000 10.92000000
44 1 2.18400000 19.65600000 15.28800000
45 1 2.18400000 19.65600000 19.65600000
46 1 2.18400000 19.65600000 24.02400000
47 1 2.18400000 19.65600000 28.39200000
48 1 2.18400000 19.65600000 32.76000000
49 1 2.18400000 19.65600000 37.12800000
50 1 2.18400000 19.65600000 41.49600000
51 1 2.18400000 24.02400000 2.18400000
52 1 2.18400000 24.02400000 6.55200000
53 1 2.18400000 24.02400000 10.92000000
54 1 2.18400000 24.02400000 15.28800000
55 1 2.18400000 24.02400000 19.65600000
56 1 2.18400000 24.02400000 24.02400000
57 1 2.18400000 24.02400000 28.39200000
58 1 2.18400000 24.02400000 32.76000000
59 1 2.18400000 24.02400000 37.12800000
60 1 2.18400000 24.02400000 41.49600000
61 1 2.18400000 28.39200000 2.18400000
62 1 2.18400000 28.39200000 6.55200000
63 1 2.18400000 28.39200000 10.92000000
64 1 2.18400000 28.39200000 15.28800000
65 1 2.18400000 28.39200000 19.65600000
66 1 2.18400000 28.39200000 24.02400000
67 1 2.18400000 28.39200000 28.39200000
68 1 2.18400000 28.39200000 32.76000000
69 1 2.18400000 28.39200000 37.12800000
70 1 2.18400000 28.39200000 41.49600000
71 1 2.18400000 32.76000000 2.18400000
72 1 2.18400000 32.76000000 6.55200000
73 1 2.18400000 32.76000000 10.92000000
74 1 2.18400000 32.76000000 15.28800000
75 1 2.18400000 32.76000000 19.65600000
76 1 2.18400000 32.76000000 24.02400000
77 1 2.18400000 32.76000000 28.39200000
78 1 2.18400000 32.76000000 32.76000000
79 1 2.18400000 32.76000000 37.12800000
80 1 2.18400000 32.76000000 41.49600000
81 1 2.18400000 37.12800000 2.18400000
82 1 2.18400000 37.12800000 6.55200000
83 1 2.18400000 37.12800000 10.92000000
84 1 2.18400000 37.12800000 15.28800000
85 1 2.18400000 37.12800000 19.65600000
86 1 2.18400000 37.12800000 24.02400000
87 1 2.18400000 37.12800000 28.39200000
88 1 2.18400000 37.12800000 32.76000000
89 1 2.18400000 37.12800000 37.12800000
90 1 2.18400000 37.12800000 41.49600000
91 1 2.18400000 41.49600000 2.18400000
92 1 2.18400000 41.49600000 6.55200000
93 1 2.18400000 41.49600000 10.92000000
94 1 2.18400000 41.49600000 15.28800000
95 1 2.18400000 41.49600000 19.65600000
96 1 2.18400000 41.49600000 24.02400000
97 1 2.18400000 41.49600000 28.39200000
98 1 2.18400000 41.49600000 32.76000000
99 1 2.18400000 41.49600000 37.12800000
100 1 2.18400000 41.49600000 41.49600000
101 1 6.55200000 2.18400000 2.18400000
102 1 6.55200000 2.18400000 6.55200000
103 1 6.55200000 2.18400000 10.92000000
104 1 6.55200000 2.18400000 15.28800000
105 1 6.55200000 2.18400000 19.65600000
106 1 6.55200000 2.18400000 24.02400000
107 1 6.55200000 2.18400000 28.39200000
108 1 6.55200000 2.18400000 32.76000000
109 1 6.55200000 2.18400000 37.12800000
110 1 6.55200000 2.18400000 41.49600000
111 1 6.55200000 6.55200000 2.18400000
112 1 6.55200000 6.55200000 6.55200000
113 1 6.55200000 6.55200000 10.92000000
114 1 6.55200000 6.55200000 15.28800000
115 1 6.55200000 6.55200000 19.65600000
116 1 6.55200000 6.55200000 24.02400000
117 1 6.55200000 6.55200000 28.39200000
118 1 6.55200000 6.55200000 32.76000000
119 1 6.55200000 6.55200000 37.12800000
120 1 6.55200000 6.55200000 41.49600000
121 1 6.55200000 10.92000000 2.18400000
122 1 6.55200000 10.92000000 6.55200000
123 1 6.55200000 10.92000000 10.92000000
124 1 6.55200000 10.92000000 15.28800000
125 1 6.55200000 10.92000000 19.65600000
126 1 6.55200000 10.92000000 24.02400000
127 1 6.55200000 10.92000000 28.39200000
128 1 6.55200000 10.92000000 32.76000000
129 1 6.55200000 10.92000000 37.12800000
130 1 6.55200000 10.92000000 41.49600000
131 1 6.55200000 15.28800000 2.18400000
132 1 6.55200000 15.28800000 6.55200000
133 1 6.55200000 15.28800000 10.92000000
134 1 6.55200000 15.28800000 15.28800000
135 1 6.55200000 15.28800000 19.65600000
136 1 6.55200000 15.28800000 24.02400000
137 1 6.55200000 15.28800000 28.39200000
138 1 6.55200000 15.28800000 32.76000000
139 1 6.55200000 15.28800000 37.12800000
140 1 6.55200000 15.28800000 41.49600000
141 1 6.55200000 19.65600000 2.18400000
142 1 6.55200000 19.65600000 6.55200000
143 1 6.55200000 19.65600000 10.92000000
144 1 6.55200000 19.65600000 15.28800000
145 1 6.55200000 19.65600000 19.65600000
146 1 6.55200000 19.65600000 24.02400000
147 1 6.55200000 19.65600000 28.39200000
148 1 6.55200000 19.65600000 32.76000000
149 1 6.55200000 19.65600000 37.12800000
150 1 6.55200000 19.65600000 41.49600000
151 1 6.55200000 24.02400000 2.18400000
152 1 6.55200000 24.02400000 6.55200000
153 1 6.55200000 24.02400000 10.92000000
154 1 6.55200000 24.02400000 15.28800000
155 1 6.55200000 24.02400000 19.65600000
156 1 6.55200000 24.02400000 24.02400000
157 1 6.55200000 24.02400000 28.39200000
158 1 6.55200000 24.02400000 32.76000000
159 1 6.55200000 24.02400000 37.12800000
160 1 6.55200000 24.02400000 41.49600000
161 1 6.55200000 28.39200000 2.18400000
162 1 6.55200000 28.39200000 6.55200000
163 1 6.55200000 28.39200000 10.92000000
164 1 6.55200000 28.39200000 15.28800000
165 1 6.55200000 28.39200000 19.65600000
166 1 6.55200000 28.39200000 24.02400000
167 1 6.55200000 28.39200000 28.39200000
168 1 6.55200000 28.39200000 32.76000000
169 1 6.55200000 28.39200000 37.12800000
170 1 6.55200000 28.39200000 41.49600000
171 1 6.55200000 32.76000000 2.18400000
172 1 6.55200000 32.76000000 6.55200000
173 1 6.55200000 32.76000000 10.92000000
174 1 6.55200000 32.76000000 15.28800000
175 1 6.55200000 32.76000000 19.65600000
176 1 6.55200000 32.76000000 24.02400000
177 1 6.55200000 32.76000000 28.39200000
178 1 6.55200000 32.76000000 32.76000000
179 1 6.55200000 32.76000000 37.12800000
180 1 6.55200000 32.76000000 41.49600000
181 1 6.55200000 37.12800000 2.18400000
182 1 6.55200000 37.12800000 6.55200000
183 1 6.55200000 37.12800000 10.92000000
184 1 6.55200000 37.12800000 15.28800000
185 1 6.55200000 37.12800000 19.65600000
186 1 6.55200000 37.12800000 24.02400000
187 1 6.55200000 37.12800000 28.39200000
188 1 6.55200000 37.12800000 32.76000000
189 1 6.55200000 37.12800000 37.12800000
190 1 6.55200000 37.12800000 41.49600000
191 1 6.55200000 41.49600000 2.18400000
192 1 6.55200000 41.49600000 6.55200000
193 1 6.55200000 41.49600000 10.92000000
194 1 6.55200000 41.49600000 15.28800000
195 1 6.55200000 41.49600000 19.65600000
196 1 6.55200000 41.49600000 24.02400000
197 1 6.55200000 41.49600000 28.39200000
198 1 6.55200000 41.49600000 32.76000000
199 1 6.55200000 41.49600000 37.12800000
200 1 6.55200000 41.49600000 41.49600000
201 1 10.92000000 2.18400000 2.18400000
202 1 10.92000000 2.18400000 6.55200000
203 1 10.92000000 2.18400000 10.92000000
204 1 10.92000000 2.18400000 15.28800000
205 1 10.92000000 2.18400000 19.65600000
206 1 10.92000000 2.18400000 24.02400000
207 1 10.92000000 2.18400000 28.39200000
208 1 10.92000000 2.18400000 32.76000000
209 1 10.92000000 2.18400000 37.12800000
210 1 10.92000000 2.18400000 41.49600000
211 1 10.92000000 6.55200000 2.18400000
212 1 10.92000000 6.55200000 6.55200000
213 1 10.92000000 6.55200000 10.92000000
214 1 10.92000000 6.55200000 15.28800000
215 1 10.92000000 6.55200000 19.65600000
216 1 10.92000000 6.55200000 24.02400000
217 1 10.92000000 6.55200000 28.39200000
218 1 10.92000000 6.55200000 32.76000000
219 1 10.92000000 6.55200000 37.12800000
220 1 10.92000000 6.55200000 41.49600000
221 1 10.92000000 10.92000000 2.18400000
222 1 10.92000000 10.92000000 6.55200000
223 1 10.92000000 10.92000000 10.92000000
224 1 10.92000000 10.92000000 15.28800000
225 1 10.92000000 10.92000000 19.65600000
226 1 10.92000000 10.92000000 24.02400000
227 1 10.92000000 10.92000000 28.39200000
228 1 10.92000000 10.92000000 32.76000000
229 1 10.92000000 10.92000000 37.12800000
230 1 10.92000000 10.92000000 41.49600000
231 1 10.92000000 15.28800000 2.18400000
232 1 10.92000000 15.28800000 6.55200000
233 1 10.92000000 15.28800000 10.92000000
234 1 10.92000000 15.28800000 15.28800000
235 1 10.92000000 15.28800000 19.65600000
236 1 10.92000000 15.28800000 24.02400000
237 1 10.92000000 15.28800000 28.39200000
238 1 10.92000000 15.28800000 32.76000000
239 1 10.92000000 15.28800000 37.12800000
240 1 10.92000000 15.28800000 41.49600000
241 1 10.92000000 19.65600000 2.18400000
242 1 10.92000000 19.65600000 6.55200000
243 1 10.92000000 19.65600000 10.92000000
244 1 10.92000000 19.65600000 15.28800000
245 1 10.92000000 19.65600000 19.65600000
246 1 10.92000000 19.65600000 24.02400000
247 1 10.92000000 19.65600000 28.39200000
248 1 10.92000000 19.65600000 32.76000000
249 1 10.92000000 19.65600000 37.12800000
250 1 10.92000000 19.65600000 41.49600000
251 1 10.92000000 24.02400000 2.18400000
252 1 10.92000000 24.02400000 6.55200000
253 1 10.92000000 24.02400000 10.92000000
254 1 10.92000000 24.02400000 15.28800000
255 1 10.92000000 24.02400000 19.65600000
256 1 10.92000000 24.02400000 24.02400000
257 1 10.92000000 24.02400000 28.39200000
258 1 10.92000000 24.02400000 32.76000000
259 1 10.92000000 24.02400000 37.12800000
260 1 10.92000000 24.02400000 41.49600000
261 1 10.92000000 28.39200000 2.18400000
262 1 10.92000000 28.39200000 6.55200000
263 1 10.92000000 28.39200000 10.92000000
264 1 10.92000000 28.39200000 15.28800000
265 1 10.92000000 28.39200000 19.65600000
266 1 10.92000000 28.39200000 24.02400000
267 1 10.92000000 28.39200000 28.39200000
268 1 10.92000000 28.39200000 32.76000000
269 1 10.92000000 28.39200000 37.12800000
270 1 10.92000000 28.39200000 41.49600000
271 1 10.92000000 32.76000000 2.18400000
272 1 10.92000000 32.76000000 6.55200000
273 1 10.92000000 32.76000000 10.92000000
274 1 10.92000000 32.76000000 15.28800000
275 1 10.92000000 32.76000000 19.65600000
276 1 10.92000000 32.76000000 24.02400000
277 1 10.92000000 32.76000000 28.39200000
278 1 10.92000000 32.76000000 32.76000000
279 1 10.92000000 32.76000000 37.12800000
280 1 10.92000000 32.76000000 41.49600000
281 1 10.92000000 37.12800000 2.18400000
282 1 10.92000000 37.12800000 6.55200000
283 1 10.92000000 37.12800000 10.92000000
284 1 10.92000000 37.12800000 15.28800000
285 1 10.92000000 37.12800000 19.65600000
286 1 10.92000000 37.12800000 24.02400000
287 1 10.92000000 37.12800000 28.39200000
288 1 10.92000000 37.12800000 32.76000000
289 1 10.92000000 37.12800000 37.12800000
290 1 10.92000000 37.12800000 41.49600000
291 1 10.92000000 41.49600000 2.18400000
292 1 10.92000000 41.49600000 6.55200000
293 1 10.92000000 41.49600000 10.92000000
294 1 10.92000000 41.49600000 15.28800000
295 1 10.92000000 41.49600000 19.65600000
296 1 10.92000000 41.49600000 24.02400000
297 1 10.92000000 41.49600000 28.39200000
298 1 10.92000000 41.49600000 32.76000000
299 1 10.92000000 41.49600000 37.12800000
300 1 10.92000000 41.49600000 41.49600000
301 1 15.28800000 2.18400000 2.18400000
302 1 15.28800000 2.18400000 6.55200000
303 1 15.28800000 2.18400000 10.92000000
304 1 15.28800000 2.18400000 15.28800000
305 1 15.28800000 2.18400000 19.65600000
306 1 15.28800000 2.18400000 24.02400000
307 1 15.28800000 2.18400000 28.39200000
308 1 15.28800000 2.18400000 32.76000000
309 1 15.28800000 2.18400000 37.12800000
310 1 15.28800000 2.18400000 41.49600000
311 1 15.28800000 6.55200000 2.18400000
312 1 15.28800000 6.55200000 6.55200000
313 1 15.28800000 6.55200000 10.92000000
314 1 15.28800000 6.55200000 15.28800000
315 1 15.28800000 6.55200000 19.65600000
316 1 15.28800000 6.55200000 24.02400000
317 1 15.28800000 6.55200000 28.39200000
318 1 15.28800000 6.55200000 32.76000000
319 1 15.28800000 6.55200000 37.12800000
320 1 15.28800000 6.55200000 41.49600000
321 1 15.28800000 10.92000000 2.18400000
322 1 15.28800000 10.92000000 6.55200000
323 1 15.28800000 10.92000000 10.92000000
324 1 15.28800000 10.92000000 15.28800000
325 1 15.28800000 10.92000000 19.65600000
326 1 15.28800000 10.92000000 24.02400000
327 1 15.28800000 10.92000000 28.39200000
328 1 15.28800000 10.92000000 32.76000000
329 1 15.28800000 10.92000000 37.12800000
330 1 15.28800000 10.92000000 41.49600000
331 1 15.28800000 15.28800000 2.18400000
332 1 15.28800000 15.28800000 6.55200000
333 1 15.28800000 15.28800000 10.92000000
334 1 15.28800000 15.28800000 15.28800000
335 1 15.28800000 15.28800000 19.65600000
336 1 15.28800000 15.28800000 24.02400000
337 1 15.28800000 15.28800000 28.39200000
338 1 15.28800000 15.28800000 32.76000000
339 1 15.28800000 15.28800000 37.12800000
340 1 15.28800000 15.28800000 41.49600000
341 1 15.28800000 19.65600000 2.18400000
342 1 15.28800000 19.65600000 6.55200000
343 1 15.28800000 19.65600000 10.92000000
344 1 15.28800000 19.65600000 15.28800000
345 1 15.28800000 19.65600000 19.65600000
346 1 15.28800000 19.65600000 24.02400000
347 1 15.28800000 19.65600000 28.39200000
348 1 15.28800000 19.65600000 32.76000000
349 1 15.28800000 19.65600000 37.12800000
350 1 15.28800000 19.65600000 41.49600000
351 1 15.28800000 24.02400000 2.18400000
352 1 15.28800000 24.02400000 6.55200000
353 1 15.28800000 24.02400000 10.92000000
354 1 15.28800000 24.02400000 15.28800000
355 1 15.28800000 24.02400000 19.65600000
356 1 15.28800000 24.02400000 24.02400000
357 1 15.28800000 24.02400000 28.39200000
358 1 15.28800000 24.02400000 32.76000000
359 1 15.28800000 24.02400000 37.12800000
360 1 15.28800000 24.02400000 41.49600000
361 1 15.28800000 28.39200000 2.18400000
362 1 15.28800000 28.39200000 6.55200000
363 1 15.28800000 28.39200000 10.92000000
364 1 15.28800000 28.39200000 15.28800000
365 1 15.28800000 28.39200000 19.65600000
366 1 15.28800000 28.39200000 24.02400000
367 1 15.28800000 28.39200000 28.39200000
368 1 15.28800000 28.39200000 32.76000000
369 1 15.28800000 28.39200000 37.12800000
370 1 15.28800000 28.39200000 41.49600000
371 1 15.28800000 32.76000000 2.18400000
372 1 15.28800000 32.76000000 6.55200000
373 1 15.28800000 32.76000000 10.92000000
374 1 15.28800000 32.76000000 15.28800000
375 1 15.28800000 32.76000000 19.65600000
376 1 15.28800000 32.76000000 24.02400000
377 1 15.28800000 32.76000000 28.39200000
378 1 15.28800000 32.76000000 32.76000000
379 1 15.28800000 32.76000000 37.12800000
380 1 15.28800000 32.76000000 41.49600000
381 1 15.28800000 37.12800000 2.18400000
382 1 15.28800000 37.12800000 6.55200000
383 1 15.28800000 37.12800000 10.92000000
384 1 15.28800000 37.12800000 15.28800000
385 1 15.28800000 37.12800000 19.65600000
386 1 15.28800000 37.12800000 24.02400000
387 1 15.28800000 37.12800000 28.39200000
388 1 15.28800000 37.12800000 32.76000000
389 1 15.28800000 37.12800000 37.12800000
390 1 15.28800000 37.12800000 41.49600000
391 1 15.28800000 41.49600000 2.18400000
392 1 15.28800000 41.49600000 6.55200000
393 1 15.28800000 41.49600000 10.92000000
394 1 15.28800000 41.49600000 15.28800000
395 1 15.28800000 41.49600000 19.65600000
396 1 15.28800000 41.49600000 24.02400000
397 1 15.28800000 41.49600000 28.39200000
398 1 15.28800000 41.49600000 32.76000000
399 1 15.28800000 41.49600000 37.12800000
400 1 15.28800000 41.49600000 41.49600000
401 1 19.65600000 2.18400000 2.18400000
402 1 19.65600000 2.18400000 6.55200000
403 1 19.65600000 2.18400000 10.92000000
404 1 19.65600000 2.18400000 15.28800000
405 1 19.65600000 2.18400000 19.65600000
406 1 19.65600000 2.18400000 24.02400000
407 1 19.65600000 2.18400000 28.39200000
408 1 19.65600000 2.18400000 32.76000000
409 1 19.65600000 2.18400000 37.12800000
410 1 19.65600000 2.18400000 41.49600000
411 1 19.65600000 6.55200000 2.18400000
412 1 19.65600000 6.55200000 6.55200000
413 1 19.65600000 6.55200000 10.92000000
414 1 19.65600000 6.55200000 15.28800000
415 1 19.65600000 6.55200000 19.65600000
416 1 19.65600000 6.55200000 24.02400000
417 1 19.65600000 6.55200000 28.39200000
418 1 19.65600000 6.55200000 32.76000000
419 1 19.65600000 6.55200000 37.12800000
420 1 19.65600000 6.55200000 41.49600000
421 1 19.65600000 10.92000000 2.18400000
422 1 19.65600000 10.92000000 6.55200000
423 1 19.65600000 10.92000000 10.92000000
424 1 19.65600000 10.92000000 15.28800000
425 1 19.65600000 10.92000000 19.65600000
426 1 19.65600000 10.92000000 24.02400000
427 1 19.65600000 10.92000000 28.39200000
428 1 19.65600000 10.92000000 32.76000000
429 1 19.65600000 10.92000000 37.12800000
430 1 19.65600000 10.92000000 41.49600000
431 1 19.65600000 15.28800000 2.18400000
432 1 19.65600000 15.28800000 6.55200000
433 1 19.65600000 15.28800000 10.92000000
434 1 19.65600000 15.28800000 15.28800000
435 1 19.65600000 15.28800000 19.65600000
436 1 19.65600000 15.28800000 24.02400000
437 1 19.65600000 15.28800000 28.39200000
438 1 19.65600000 15.28800000 32.76000000
439 1 19.65600000 15.28800000 37.12800000
440 1 19.65600000 15.28800000 41.49600000
441 1 19.65600000 19.65600000 2.18400000
442 1 19.65600000 19.65600000 6.55200000
443 1 19.65600000 19.65600000 10.92000000
444 1 19.65600000 19.65600000 15.28800000
445 1 19.65600000 19.65600000 19.65600000
446 1 19.65600000 19.65600000 24.02400000
447 1 19.65600000 19.65600000 28.39200000
448 1 19.65600000 19.65600000 32.76000000
449 1 19.65600000 19.65600000 37.12800000
450 1 19.65600000 19.65600000 41.49600000
451 1 19.65600000 24.02400000 2.18400000
452 1 19.65600000 24.02400000 6.55200000
453 1 19.65600000 24.02400000 10.92000000
454 1 19.65600000 24.02400000 15.28800000
455 1 19.65600000 24.02400000 19.65600000
456 1 19.65600000 24.02400000 24.02400000
457 1 19.65600000 24.02400000 28.39200000
458 1 19.65600000 24.02400000 32.76000000
459 1 19.65600000 24.02400000 37.12800000
460 1 19.65600000 24.02400000 41.49600000
461 1 19.65600000 28.39200000 2.18400000
462 1 19.65600000 28.39200000 6.55200000
463 1 19.65600000 28.39200000 10.92000000
464 1 19.65600000 28.39200000 15.28800000
465 1 19.65600000 28.39200000 19.65600000
466 1 19.65600000 28.39200000 24.02400000
467 1 19.65600000 28.39200000 28.39200000
468 1 19.65600000 28.39200000 32.76000000
469 1 19.65600000 28.39200000 37.12800000
470 1 19.65600000 28.39200000 41.49600000
471 1 19.65600000 32.76000000 2.18400000
472 1 19.65600000 32.76000000 6.55200000
473 1 19.65600000 32.76000000 10.92000000
474 1 19.65600000 32.76000000 15.28800000
475 1 19.65600000 32.76000000 19.65600000
476 1 19.65600000 32.76000000 24.02400000
477 1 19.65600000 32.76000000 28.39200000
478 1 19.65600000 32.76000000 32.76000000
479 1 19.65600000 32.76000000 37.12800000
480 1 19.65600000 32.76000000 41.49600000
481 1 19.65600000 37.12800000 2.18400000
482 1 19.65600000 37.12800000 6.55200000
483 1 19.65600000 37.12800000 10.92000000
484 1 19.65600000 37.12800000 15.28800000
485 1 19.65600000 37.12800000 19.65600000
486 1 19.65600000 37.12800000 24.02400000
487 1 19.65600000 37.12800000 28.39200000
488 1 19.65600000 37.12800000 32.76000000
489 1 19.65600000 37.12800000 37.12800000
490 1 19.65600000 37.12800000 41.49600000
491 1 19.65600000 41.49600000 2.18400000
492 1 19.65600000 41.49600000 6.55200000
493 1 19.65600000 41.49600000 10.92000000
494 1 19.65600000 41.49600000 15.28800000
495 1 19.65600000 41.49600000 19.65600000
496 1 19.65600000 41.49600000 24.02400000
497 1 19.65600000 41.49600000 28.39200000
498 1 19.65600000 41.49600000 32.76000000
499 1 19.65600000 41.49600000 37.12800000
500 1 19.65600000 41.49600000 41.49600000
501 2 24.02400000 2.18400000 2.18400000
502 2 24.02400000 2.18400000 6.55200000
503 2 24.02400000 2.18400000 10.92000000
504 2 24.02400000 2.18400000 15.28800000
505 2 24.02400000 2.18400000 19.65600000
506 2 24.02400000 2.18400000 24.02400000
507 2 24.02400000 2.18400000 28.39200000
508 2 24.02400000 2.18400000 32.76000000
509 2 24.02400000 2.18400000 37.12800000
510 2 24.02400000 2.18400000 41.49600000
511 2 24.02400000 6.55200000 2.18400000
512 2 24.02400000 6.55200000 6.55200000
513 2 24.02400000 6.55200000 10.92000000
514 2 24.02400000 6.55200000 15.28800000
515 2 24.02400000 6.55200000 19.65600000
516 2 24.02400000 6.55200000 24.02400000
517 2 24.02400000 6.55200000 28.39200000
518 2 24.02400000 6.55200000 32.76000000
519 2 24.02400000 6.55200000 37.12800000
520 2 24.02400000 6.55200000 41.49600000
521 2 24.02400000 10.92000000 2.18400000
522 2 24.02400000 10.92000000 6.55200000
523 2 24.02400000 10.92000000 10.92000000
524 2 24.02400000 10.92000000 15.28800000
525 2 24.02400000 10.92000000 19.65600000
526 2 24.02400000 10.92000000 24.02400000
527 2 24.02400000 10.92000000 28.39200000
528 2 24.02400000 10.92000000 32.76000000
529 2 24.02400000 10.92000000 37.12800000
530 2 24.02400000 10.92000000 41.49600000
531 2 24.02400000 15.28800000 2.18400000
532 2 24.02400000 15.28800000 6.55200000
533 2 24.02400000 15.28800000 10.92000000
534 2 24.02400000 15.28800000 15.28800000
535 2 24.02400000 15.28800000 19.65600000
536 2 24.02400000 15.28800000 24.02400000
537 2 24.02400000 15.28800000 28.39200000
538 2 24.02400000 15.28800000 32.76000000
539 2 24.02400000 15.28800000 37.12800000
540 2 24.02400000 15.28800000 41.49600000
541 2 24.02400000 19.65600000 2.18400000
542 2 24.02400000 19.65600000 6.55200000
543 2 24.02400000 19.65600000 10.92000000
544 2 24.02400000 19.65600000 15.28800000
545 2 24.02400000 19.65600000 19.65600000
546 2 24.02400000 19.65600000 24.02400000
547 2 24.02400000 19.65600000 28.39200000
548 2 24.02400000 19.65600000 32.76000000
549 2 24.02400000 19.65600000 37.12800000
550 2 24.02400000 19.65600000 41.49600000
551 2 24.02400000 24.02400000 2.18400000
552 2 24.02400000 24.02400000 6.55200000
553 2 24.02400000 24.02400000 10.92000000
554 2 24.02400000 24.02400000 15.28800000
555 2 24.02400000 24.02400000 19.65600000
556 2 24.02400000 24.02400000 24.02400000
557 2 24.02400000 24.02400000 28.39200000
558 2 24.02400000 24.02400000 32.76000000
559 2 24.02400000 24.02400000 37.12800000
560 2 24.02400000 24.02400000 41.49600000
561 2 24.02400000 28.39200000 2.18400000
562 2 24.02400000 28.39200000 6.55200000
563 2 24.02400000 28.39200000 10.92000000
564 2 24.02400000 28.39200000 15.28800000
565 2 24.02400000 28.39200000 19.65600000
566 2 24.02400000 28.39200000 24.02400000
567 2 24.02400000 28.39200000 28.39200000
568 2 24.02400000 28.39200000 32.76000000
569 2 24.02400000 28.39200000 37.12800000
570 2 24.02400000 28.39200000 41.49600000
571 2 24.02400000 32.76000000 2.18400000
572 2 24.02400000 32.76000000 6.55200000
573 2 24.02400000 32.76000000 10.92000000
574 2 24.02400000 32.76000000 15.28800000
575 2 24.02400000 32.76000000 19.65600000
576 2 24.02400000 32.76000000 24.02400000
577 2 24.02400000 32.76000000 28.39200000
578 2 24.02400000 32.76000000 32.76000000
579 2 24.02400000 32.76000000 37.12800000
580 2 24.02400000 32.76000000 41.49600000
581 2 24.02400000 37.12800000 2.18400000
582 2 24.02400000 37.12800000 6.55200000
583 2 24.02400000 37.12800000 10.92000000
584 2 24.02400000 37.12800000 15.28800000
585 2 24.02400000 37.12800000 19.65600000
586 2 24.02400000 37.12800000 24.02400000
587 2 24.02400000 37.12800000 28.39200000
588 2 24.02400000 37.12800000 32.76000000
589 2 24.02400000 37.12800000 37.12800000
590 2 24.02400000 37.12800000 41.49600000
591 2 24.02400000 41.49600000 2.18400000
592 2 24.02400000 41.49600000 6.55200000
593 2 24.02400000 41.49600000 10.92000000
594 2 24.02400000 41.49600000 15.28800000
595 2 24.02400000 41.49600000 19.65600000
596 2 24.02400000 41.49600000 24.02400000
597 2 24.02400000 41.49600000 28.39200000
598 2 24.02400000 41.49600000 32.76000000
599 2 24.02400000 41.49600000 37.12800000
600 2 24.02400000 41.49600000 41.49600000
601 2 28.39200000 2.18400000 2.18400000
602 2 28.39200000 2.18400000 6.55200000
603 2 28.39200000 2.18400000 10.92000000
604 2 28.39200000 2.18400000 15.28800000
605 2 28.39200000 2.18400000 19.65600000
606 2 28.39200000 2.18400000 24.02400000
607 2 28.39200000 2.18400000 28.39200000
608 2 28.39200000 2.18400000 32.76000000
609 2 28.39200000 2.18400000 37.12800000
610 2 28.39200000 2.18400000 41.49600000
611 2 28.39200000 6.55200000 2.18400000
612 2 28.39200000 6.55200000 6.55200000
613 2 28.39200000 6.55200000 10.92000000
614 2 28.39200000 6.55200000 15.28800000
615 2 28.39200000 6.55200000 19.65600000
616 2 28.39200000 6.55200000 24.02400000
617 2 28.39200000 6.55200000 28.39200000
618 2 28.39200000 6.55200000 32.76000000
619 2 28.39200000 6.55200000 37.12800000
620 2 28.39200000 6.55200000 41.49600000
621 2 28.39200000 10.92000000 2.18400000
622 2 28.39200000 10.92000000 6.55200000
623 2 28.39200000 10.92000000 10.92000000
624 2 28.39200000 10.92000000 15.28800000
625 2 28.39200000 10.92000000 19.65600000
626 2 28.39200000 10.92000000 24.02400000
627 2 28.39200000 10.92000000 28.39200000
628 2 28.39200000 10.92000000 32.76000000
629 2 28.39200000 10.92000000 37.12800000
630 2 28.39200000 10.92000000 41.49600000
631 2 28.39200000 15.28800000 2.18400000
632 2 28.39200000 15.28800000 6.55200000
633 2 28.39200000 15.28800000 10.92000000
634 2 28.39200000 15.28800000 15.28800000
635 2 28.39200000 15.28800000 19.65600000
636 2 28.39200000 15.28800000 24.02400000
637 2 28.39200000 15.28800000 28.39200000
638 2 28.39200000 15.28800000 32.76000000
639 2 28.39200000 15.28800000 37.12800000
640 2 28.39200000 15.28800000 41.49600000
641 2 28.39200000 19.65600000 2.18400000
642 2 28.39200000 19.65600000 6.55200000
643 2 28.39200000 19.65600000 10.92000000
644 2 28.39200000 19.65600000 15.28800000
645 2 28.39200000 19.65600000 19.65600000
646 2 28.39200000 19.65600000 24.02400000
647 2 28.39200000 19.65600000 28.39200000
648 2 28.39200000 19.65600000 32.76000000
649 2 28.39200000 19.65600000 37.12800000
650 2 28.39200000 19.65600000 41.49600000
651 2 28.39200000 24.02400000 2.18400000
652 2 28.39200000 24.02400000 6.55200000
653 2 28.39200000 24.02400000 10.92000000
654 2 28.39200000 24.02400000 15.28800000
655 2 28.39200000 24.02400000 19.65600000
656 2 28.39200000 24.02400000 24.02400000
657 2 28.39200000 24.02400000 28.39200000
658 2 28.39200000 24.02400000 32.76000000
659 2 28.39200000 24.02400000 37.12800000
660 2 28.39200000 24.02400000 41.49600000
661 2 28.39200000 28.39200000 2.18400000
662 2 28.39200000 28.39200000 6.55200000
663 2 28.39200000 28.39200000 10.92000000
664 2 28.39200000 28.39200000 15.28800000
665 2 28.39200000 28.39200000 19.65600000
666 2 28.39200000 28.39200000 24.02400000
667 2 28.39200000 28.39200000 28.39200000
668 2 28.39200000 28.39200000 32.76000000
669 2 28.39200000 28.39200000 37.12800000
670 2 28.39200000 28.39200000 41.49600000
671 2 28.39200000 32.76000000 2.18400000
672 2 28.39200000 32.76000000 6.55200000
673 2 28.39200000 32.76000000 10.92000000
674 2 28.39200000 32.76000000 15.28800000
675 2 28.39200000 32.76000000 19.65600000
676 2 28.39200000 32.76000000 24.02400000
677 2 28.39200000 32.76000000 28.39200000
678 2 28.39200000 32.76000000 32.76000000
679 2 28.39200000 32.76000000 37.12800000
680 2 28.39200000 32.76000000 41.49600000
681 2 28.39200000 37.12800000 2.18400000
682 2 28.39200000 37.12800000 6.55200000
683 2 28.39200000 37.12800000 10.92000000
684 2 28.39200000 37.12800000 15.28800000
685 2 28.39200000 37.12800000 19.65600000
686 2 28.39200000 37.12800000 24.02400000
687 2 28.39200000 37.12800000 28.39200000
688 2 28.39200000 37.12800000 32.76000000
689 2 28.39200000 37.12800000 37.12800000
690 2 28.39200000 37.12800000 41.49600000
691 2 28.39200000 41.49600000 2.18400000
692 2 28.39200000 41.49600000 6.55200000
693 2 28.39200000 41.49600000 10.92000000
694 2 28.39200000 41.49600000 15.28800000
695 2 28.39200000 41.49600000 19.65600000
696 2 28.39200000 41.49600000 24.02400000
697 2 28.39200000 41.49600000 28.39200000
698 2 28.39200000 41.49600000 32.76000000
699 2 28.39200000 41.49600000 37.12800000
700 2 28.39200000 41.49600000 41.49600000
701 2 32.76000000 2.18400000 2.18400000
702 2 32.76000000 2.18400000 6.55200000
703 2 32.76000000 2.18400000 10.92000000
704 2 32.76000000 2.18400000 15.28800000
705 2 32.76000000 2.18400000 19.65600000
706 2 32.76000000 2.18400000 24.02400000
707 2 32.76000000 2.18400000 28.39200000
708 2 32.76000000 2.18400000 32.76000000
709 2 32.76000000 2.18400000 37.12800000
710 2 32.76000000 2.18400000 41.49600000
711 2 32.76000000 6.55200000 2.18400000
712 2 32.76000000 6.55200000 6.55200000
713 2 32.76000000 6.55200000 10.92000000
714 2 32.76000000 6.55200000 15.28800000
715 2 32.76000000 6.55200000 19.65600000
716 2 32.76000000 6.55200000 24.02400000
717 2 32.76000000 6.55200000 28.39200000
718 2 32.76000000 6.55200000 32.76000000
719 2 32.76000000 6.55200000 37.12800000
720 2 32.76000000 6.55200000 41.49600000
721 2 32.76000000 10.92000000 2.18400000
722 2 32.76000000 10.92000000 6.55200000
723 2 32.76000000 10.92000000 10.92000000
724 2 32.76000000 10.92000000 15.28800000
725 2 32.76000000 10.92000000 19.65600000