LAMMPS Simulation Data
1728 atoms
2 atom types

0 41.61 xlo xhi 
0 41.61 ylo yhi 
0 41.61 zlo zhi 

Masses

1 1.0
2 1.0

Atoms

1 1 1.73375000 1.73375000 1.73375000
2 1 1.73375000 1.73375000 5.20125000
3 1 1.73375000 1.73375000 8.66875000
4 1 1.73375000 1.73375000 12.13625000
5 1 1.73375000 1.73375000 15.60375000
6 1 1.73375000 1.73375000 19.07125000
7 1 1.73375000 1.73375000 22.53875000
8 1 1.73375000 1.73375000 26.00625000
9 1 1.73375000 1.73375000 29.47375000
10 1 1.73375000 1.73375000 32.94125000
11 1 1.73375000 1.73375000 36.40875000
12 1 1.73375000 1.73375000 39.87625000
13 1 1.73375000 5.20125000 1.73375000
14 1 1.73375000 5.20125000 5.20125000
15 1 1.73375000 5.20125000 8.66875000
16 1 1.73375000 5.20125000 12.13625000
17 1 1.73375000 5.20125000 15.60375000
18 1 1.73375000 5.20125000 19.07125000
19 1 1.73375000 5.20125000 22.53875000
20 1 1.73375000 5.20125000 26.00625000
21 1 1.73375000 5.20125000 29.47375000
22 1 1.73375000 5.20125000 32.94125000
23 1 1.73375000 5.20125000 36.40875000
24 1 1.73375000 5.20125000 39.87625000
25 1 1.73375000 8.66875000 1.73375000
26 1 1.73375000 8.66875000 5.20125000
27 1 1.73375000 8.66875000 8.66875000
28 1 1.73375000 8.66875000 12.13625000
29 1 1.73375000 8.66875000 15.60375000
30 1 1.73375000 8.66875000 19.07125000
31 1 1.73375000 8.66875000 22.53875000
32 1 1.73375000 8.66875000 26.00625000
33 1 1.73375000 8.66875000 29.47375000
34 1 1.73375000 8.66875000 32.94125000
35 1 1.73375000 8.66875000 36.40875000
36 1 1.73375000 8.66875000 39.87625000
37 1 1.73375000 12.13625000 1.73375000
38 1 1.73375000 12.13625000 5.20125000
39 1 1.73375000 12.13625000 8.66875000
40 1 1.73375000 12.13625000 12.13625000
41 1 1.73375000 12.13625000 15.60375000
42 1 1.73375000 12.13625000 19.07125000
43 1 1.73375000 12.13625000 22.53875000
44 1 1.73375000 12.13625000 26.00625000
45 1 1.73375000 12.13625000 29.47375000
46 1 1.73375000 12.13625000 32.94125000
47 1 1.73375000 12.13625000 36.40875000
48 1 1.73375000 12.13625000 39.87625000
49 1 1.73375000 15.60375000 1.73375000
50 1 1.73375000 15.60375000 5.20125000
51 1 1.73375000 15.60375000 8.66875000
52 1 1.73375000 15.60375000 12.13625000
53 1 1.73375000 15.60375000 15.60375000
54 1 1.73375000 15.60375000 19.07125000
55 1 1.73375000 15.60375000 22.53875000
56 1 1.73375000 15.60375000 26.00625000
57 1 1.73375000 15.60375000 29.47375000
58 1 1.73375000 15.60375000 32.94125000
59 1 1.73375000 15.60375000 36.40875000
60 1 1.73375000 15.60375000 39.87625000
61 1 1.73375000 19.07125000 1.73375000
62 1 1.73375000 19.07125000 5.20125000
63 1 1.73375000 19.07125000 8.66875000
64 1 1.73375000 19.07125000 12.13625000
65 1 1.73375000 19.07125000 15.60375000
66 1 1.73375000 19.07125000 19.07125000
67 1 1.73375000 19.07125000 22.53875000
68 1 1.73375000 19.07125000 26.00625000
69 1 1.73375000 19.07125000 29.47375000
70 1 1.73375000 19.07125000 32.94125000
71 1 1.73375000 19.07125000 36.40875000
72 1 1.73375000 19.07125000 39.87625000
73 1 1.73375000 22.53875000 1.73375000
74 1 1.73375000 22.53875000 5.20125000
75 1 1.73375000 22.53875000 8.66875000
76 1 1.73375000 22.53875000 12.13625000
77 1 1.73375000 22.53875000 15.60375000
78 1 1.73375000 22.53875000 19.07125000
79 1 1.73375000 22.53875000 22.53875000
80 1 1.73375000 22.53875000 26.00625000
81 1 1.73375000 22.53875000 29.47375000
82 1 1.73375000 22.53875000 32.94125000
83 1 1.73375000 22.53875000 36.40875000
84 1 1.73375000 22.53875000 39.87625000
85 1 1.73375000 26.00625000 1.73375000
86 1 1.73375000 26.00625000 5.20125000
87 1 1.73375000 26.00625000 8.66875000
88 1 1.73375000 26.00625000 12.13625000
89 1 1.73375000 26.00625000 15.60375000
90 1 1.73375000 26.00625000 19.07125000
91 1 1.73375000 26.00625000 22.53875000
92 1 1.73375000 26.00625000 26.00625000
93 1 1.73375000 26.00625000 29.47375000
94 1 1.73375000 26.00625000 32.94125000
95 1 1.73375000 26.00625000 36.40875000
96 1 1.73375000 26.00625000 39.87625000
97 1 1.73375000 29.47375000 1.73375000
98 1 1.73375000 29.47375000 5.20125000
99 1 1.73375000 29.47375000 8.66875000
100 1 1.73375000 29.47375000 12.13625000
101 1 1.73375000 29.47375000 15.60375000
102 1 1.73375000 29.47375000 19.07125000
103 1 1.73375000 29.47375000 22.53875000
104 1 1.73375000 29.47375000 26.00625000
105 1 1.73375000 29.47375000 29.47375000
106 1 1.73375000 29.47375000 32.94125000
107 1 1.73375000 29.47375000 36.40875000
108 1 1.73375000 29.47375000 39.87625000
109 1 1.73375000 32.94125000 1.73375000
110 1 1.73375000 32.94125000 5.20125000
111 1 1.73375000 32.94125000 8.66875000
112 1 1.73375000 32.94125000 12.13625000
113 1 1.73375000 32.94125000 15.60375000
114 1 1.73375000 32.94125000 19.07125000
115 1 1.73375000 32.94125000 22.53875000
116 1 1.73375000 32.94125000 26.00625000
117 1 1.73375000 32.94125000 29.47375000
118 1 1.73375000 32.94125000 32.94125000
119 1 1.73375000 32.94125000 36.40875000
120 1 1.73375000 32.94125000 39.87625000
121 1 1.73375000 36.40875000 1.73375000
122 1 1.73375000 36.40875000 5.20125000
123 1 1.73375000 36.40875000 8.66875000
124 1 1.73375000 36.40875000 12.13625000
125 1 1.73375000 36.40875000 15.60375000
126 1 1.73375000 36.40875000 19.07125000
127 1 1.73375000 36.40875000 22.53875000
128 1 1.73375000 36.40875000 26.00625000
129 1 1.73375000 36.40875000 29.47375000
130 1 1.73375000 36.40875000 32.94125000
131 1 1.73375000 36.40875000 36.40875000
132 1 1.73375000 36.40875000 39.87625000
133 1 1.73375000 39.87625000 1.73375000
134 1 1.73375000 39.87625000 5.20125000
135 1 1.73375000 39.87625000 8.66875000
136 1 1.73375000 39.87625000 12.13625000
137 1 1.73375000 39.87625000 15.60375000
138 1 1.73375000 39.87625000 19.07125000
139 1 1.73375000 39.87625000 22.53875000
140 1 1.73375000 39.87625000 26.00625000
141 1 1.73375000 39.87625000 29.47375000
142 1 1.73375000 39.87625000 32.94125000
143 1 1.73375000 39.87625000 36.40875000
144 1 1.73375000 39.87625000 39.87625000
145 1 5.20125000 1.73375000 1.73375000
146 1 5.20125000 1.73375000 5.20125000
147 1 5.20125000 1.73375000 8.66875000
148 1 5.20125000 1.73375000 12.13625000
149 1 5.20125000 1.73375000 15.60375000
150 1 5.20125000 1.73375000 19.07125000
151 1 5.20125000 1.73375000 22.53875000
152 1 5.20125000 1.73375000 26.00625000
153 1 5.20125000 1.73375000 29.47375000
154 1 5.20125000 1.73375000 32.94125000
155 1 5.20125000 1.73375000 36.40875000
156 1 5.20125000 1.73375000 39.87625000
157 1 5.20125000 5.20125000 1.73375000
158 1 5.20125000 5.20125000 5.20125000
159 1 5.20125000 5.20125000 8.66875000
160 1 5.20125000 5.20125000 12.13625000
161 1 5.20125000 5.20125000 15.60375000
162 1 5.20125000 5.20125000 19.07125000
163 1 5.20125000 5.20125000 22.53875000
164 1 5.20125000 5.20125000 26.00625000
165 1 5.20125000 5.20125000 29.47375000
166 1 5.20125000 5.20125000 32.94125000
167 1 5.20125000 5.20125000 36.40875000
168 1 5.20125000 5.20125000 39.87625000
169 1 5.20125000 8.66875000 1.73375000
170 1 5.20125000 8.66875000 5.20125000
171 1 5.20125000 8.66875000 8.66875000
172 1 5.20125000 8.66875000 12.13625000
173 1 5.20125000 8.66875000 15.60375000
174 1 5.20125000 8.66875000 19.07125000
175 1 5.20125000 8.66875000 22.53875000
176 1 5.20125000 8.66875000 26.00625000
177 1 5.20125000 8.66875000 29.47375000
178 1 5.20125000 8.66875000 32.94125000
179 1 5.20125000 8.66875000 36.40875000
180 1 5.20125000 8.66875000 39.87625000
181 1 5.20125000 12.13625000 1.73375000
182 1 5.20125000 12.13625000 5.20125000
183 1 5.20125000 12.13625000 8.66875000
184 1 5.20125000 12.13625000 12.13625000
185 1 5.20125000 12.13625000 15.60375000
186 1 5.20125000 12.13625000 19.07125000
187 1 5.20125000 12.13625000 22.53875000
188 1 5.20125000 12.13625000 26.00625000
189 1 5.20125000 12.13625000 29.47375000
190 1 5.20125000 12.13625000 32.94125000
191 1 5.20125000 12.13625000 36.40875000
192 1 5.20125000 12.13625000 39.87625000
193 1 5.20125000 15.60375000 1.73375000
194 1 5.20125000 15.60375000 5.20125000
195 1 5.20125000 15.60375000 8.66875000
196 1 5.20125000 15.60375000 12.13625000
197 1 5.20125000 15.60375000 15.60375000
198 1 5.20125000 15.60375000 19.07125000
199 1 5.20125000 15.60375000 22.53875000
200 1 5.20125000 15.60375000 26.00625000
201 1 5.20125000 15.60375000 29.47375000
202 1 5.20125000 15.60375000 32.94125000
203 1 5.20125000 15.60375000 36.40875000
204 1 5.20125000 15.60375000 39.87625000
205 1 5.20125000 19.07125000 1.73375000
206 1 5.20125000 19.07125000 5.20125000
207 1 5.20125000 19.07125000 8.66875000
208 1 5.20125000 19.07125000 12.13625000
209 1 5.20125000 19.07125000 15.60375000
210 1 5.20125000 19.07125000 19.07125000
211 1 5.20125000 19.07125000 22.53875000
212 1 5.20125000 19.07125000 26.00625000
213 1 5.20125000 19.07125000 29.47375000
214 1 5.20125000 19.07125000 32.94125000
215 1 5.20125000 19.07125000 36.40875000
216 1 5.20125000 19.07125000 39.87625000
217 1 5.20125000 22.53875000 1.73375000
218 1 5.20125000 22.53875000 5.20125000
219 1 5.20125000 22.53875000 8.66875000
220 1 5.20125000 22.53875000 12.13625000
221 1 5.20125000 22.53875000 15.60375000
222 1 5.20125000 22.53875000 19.07125000
223 1 5.20125000 22.53875000 22.53875000
224 1 5.20125000 22.53875000 26.00625000
225 1 5.20125000 22.53875000 29.47375000
226 1 5.20125000 22.53875000 32.94125000
227 1 5.20125000 22.53875000 36.40875000
228 1 5.20125000 22.53875000 39.87625000
229 1 5.20125000 26.00625000 1.73375000
230 1 5.20125000 26.00625000 5.20125000
231 1 5.20125000 26.00625000 8.66875000
232 1 5.20125000 26.00625000 12.13625000
233 1 5.20125000 26.00625000 15.60375000
234 1 5.20125000 26.00625000 19.07125000
235 1 5.20125000 26.00625000 22.53875000
236 1 5.20125000 26.00625000 26.00625000
237 1 5.20125000 26.00625000 29.47375000
238 1 5.20125000 26.00625000 32.94125000
239 1 5.20125000 26.00625000 36.40875000
240 1 5.20125000 26.00625000 39.87625000
241 1 5.20125000 29.47375000 1.73375000
242 1 5.20125000 29.47375000 5.20125000
243 1 5.20125000 29.47375000 8.66875000
244 1 5.20125000 29.47375000 12.13625000
245 1 5.20125000 29.47375000 15.60375000
246 1 5.20125000 29.47375000 19.07125000
247 1 5.20125000 29.47375000 22.53875000
248 1 5.20125000 29.47375000 26.00625000
249 1 5.20125000 29.47375000 29.47375000
250 1 5.20125000 29.47375000 32.94125000
251 1 5.20125000 29.47375000 36.40875000
252 1 5.20125000 29.47375000 39.87625000
253 1 5.20125000 32.94125000 1.73375000
254 1 5.20125000 32.94125000 5.20125000
255 1 5.20125000 32.94125000 8.66875000
256 1 5.20125000 32.94125000 12.13625000
257 1 5.20125000 32.94125000 15.60375000
258 1 5.20125000 32.94125000 19.07125000
259 1 5.20125000 32.94125000 22.53875000
260 1 5.20125000 32.94125000 26.00625000
261 1 5.20125000 32.94125000 29.47375000
262 1 5.20125000 32.94125000 32.94125000
263 1 5.20125000 32.94125000 36.40875000
264 1 5.20125000 32.94125000 39.87625000
265 1 5.20125000 36.40875000 1.73375000
266 1 5.20125000 36.40875000 5.20125000
267 1 5.20125000 36.40875000 8.66875000
268 1 5.20125000 36.40875000 12.13625000
269 1 5.20125000 36.40875000 15.60375000
270 1 5.20125000 36.40875000 19.07125000
271 1 5.20125000 36.40875000 22.53875000
272 1 5.20125000 36.40875000 26.00625000
273 1 5.20125000 36.40875000 29.47375000
274 1 5.20125000 36.40875000 32.94125000
275 1 5.20125000 36.40875000 36.40875000
276 1 5.20125000 36.40875000 39.87625000
277 1 5.20125000 39.87625000 1.73375000
278 1 5.20125000 39.87625000 5.20125000
279 1 5.20125000 39.87625000 8.66875000
280 1 5.20125000 39.87625000 12.13625000
281 1 5.20125000 39.87625000 15.60375000
282 1 5.20125000 39.87625000 19.07125000
283 1 5.20125000 39.87625000 22.53875000
284 1 5.20125000 39.87625000 26.00625000
285 1 5.20125000 39.87625000 29.47375000
286 1 5.20125000 39.87625000 32.94125000
287 1 5.20125000 39.87625000 36.40875000
288 1 5.20125000 39.87625000 39.87625000
289 1 8.66875000 1.73375000 1.73375000
290 1 8.66875000 1.73375000 5.20125000
291 1 8.66875000 1.73375000 8.66875000
292 1 8.66875000 1.73375000 12.13625000
293 1 8.66875000 1.73375000 15.60375000
294 1 8.66875000 1.73375000 19.07125000
295 1 8.66875000 1.73375000 22.53875000
296 1 8.66875000 1.73375000 26.00625000
297 1 8.66875000 1.73375000 29.47375000
298 1 8.66875000 1.73375000 32.94125000
299 1 8.66875000 1.73375000 36.40875000
300 1 8.66875000 1.73375000 39.87625000
301 1 8.66875000 5.20125000 1.73375000
302 1 8.66875000 5.20125000 5.20125000
303 1 8.66875000 5.20125000 8.66875000
304 1 8.66875000 5.20125000 12.13625000
305 1 8.66875000 5.20125000 15.60375000
306 1 8.66875000 5.20125000 19.07125000
307 1 8.66875000 5.20125000 22.53875000
308 1 8.66875000 5.20125000 26.00625000
309 1 8.66875000 5.20125000 29.47375000
310 1 8.66875000 5.20125000 32.94125000
311 1 8.66875000 5.20125000 36.40875000
312 1 8.66875000 5.20125000 39.87625000
313 1 8.66875000 8.66875000 1.73375000
314 1 8.66875000 8.66875000 5.20125000
315 1 8.66875000 8.66875000 8.66875000
316 1 8.66875000 8.66875000 12.13625000
317 1 8.66875000 8.66875000 15.60375000
318 1 8.66875000 8.66875000 19.07125000
319 1 8.66875000 8.66875000 22.53875000
320 1 8.66875000 8.66875000 26.00625000
321 1 8.66875000 8.66875000 29.47375000
322 1 8.66875000 8.66875000 32.94125000
323 1 8.66875000 8.66875000 36.40875000
324 1 8.66875000 8.66875000 39.87625000
325 1 8.66875000 12.13625000 1.73375000
326 1 8.66875000 12.13625000 5.20125000
327 1 8.66875000 12.13625000 8.66875000
328 1 8.66875000 12.13625000 12.13625000
329 1 8.66875000 12.13625000 15.60375000
330 1 8.66875000 12.13625000 19.07125000
331 1 8.66875000 12.13625000 22.53875000
332 1 8.66875000 12.13625000 26.00625000
333 1 8.66875000 12.13625000 29.47375000
334 1 8.66875000 12.13625000 32.94125000
335 1 8.66875000 12.13625000 36.40875000
336 1 8.66875000 12.13625000 39.87625000
337 1 8.66875000 15.60375000 1.73375000
338 1 8.66875000 15.60375000 5.20125000
339 1 8.66875000 15.60375000 8.66875000
340 1 8.66875000 15.60375000 12.13625000
341 1 8.66875000 15.60375000 15.60375000
342 1 8.66875000 15.60375000 19.07125000
343 1 8.66875000 15.60375000 22.53875000
344 1 8.66875000 15.60375000 26.00625000
345 1 8.66875000 15.60375000 29.47375000
346 1 8.66875000 15.60375000 32.94125000
347 1 8.66875000 15.60375000 36.40875000
348 1 8.66875000 15.60375000 39.87625000
349 1 8.66875000 19.07125000 1.73375000
350 1 8.66875000 19.07125000 5.20125000
351 1 8.66875000 19.07125000 8.66875000
352 1 8.66875000 19.07125000 12.13625000
353 1 8.66875000 19.07125000 15.60375000
354 1 8.66875000 19.07125000 19.07125000
355 1 8.66875000 19.07125000 22.53875000
356 1 8.66875000 19.07125000 26.00625000
357 1 8.66875000 19.07125000 29.47375000
358 1 8.66875000 19.07125000 32.94125000
359 1 8.66875000 19.07125000 36.40875000
360 1 8.66875000 19.07125000 39.87625000
361 1 8.66875000 22.53875000 1.73375000
362 1 8.66875000 22.53875000 5.20125000
363 1 8.66875000 22.53875000 8.66875000
364 1 8.66875000 22.53875000 12.13625000
365 1 8.66875000 22.53875000 15.60375000
366 1 8.66875000 22.53875000 19.07125000
367 1 8.66875000 22.53875000 22.53875000
368 1 8.66875000 22.53875000 26.00625000
369 1 8.66875000 22.53875000 29.47375000
370 1 8.66875000 22.53875000 32.94125000
371 1 8.66875000 22.53875000 36.40875000
372 1 8.66875000 22.53875000 39.87625000
373 1 8.66875000 26.00625000 1.73375000
374 1 8.66875000 26.00625000 5.20125000
375 1 8.66875000 26.00625000 8.66875000
376 1 8.66875000 26.00625000 12.13625000
377 1 8.66875000 26.00625000 15.60375000
378 1 8.66875000 26.00625000 19.07125000
379 1 8.66875000 26.00625000 22.53875000
380 1 8.66875000 26.00625000 26.00625000
381 1 8.66875000 26.00625000 29.47375000
382 1 8.66875000 26.00625000 32.94125000
383 1 8.66875000 26.00625000 36.40875000
384 1 8.66875000 26.00625000 39.87625000
385 1 8.66875000 29.47375000 1.73375000
386 1 8.66875000 29.47375000 5.20125000
387 1 8.66875000 29.47375000 8.66875000
388 1 8.66875000 29.47375000 12.13625000
389 1 8.66875000 29.47375000 15.60375000
390 1 8.66875000 29.47375000 19.07125000
391 1 8.66875000 29.47375000 22.53875000
392 1 8.66875000 29.47375000 26.00625000
393 1 8.66875000 29.47375000 29.47375000
394 1 8.66875000 29.47375000 32.94125000
395 1 8.66875000 29.47375000 36.40875000
396 1 8.66875000 29.47375000 39.87625000
397 1 8.66875000 32.94125000 1.73375000
398 1 8.66875000 32.94125000 5.20125000
399 1 8.66875000 32.94125000 8.66875000
400 1 8.66875000 32.94125000 12.13625000
401 1 8.66875000 32.94125000 15.60375000
402 1 8.66875000 32.94125000 19.07125000
403 1 8.66875000 32.94125000 22.53875000
404 1 8.66875000 32.94125000 26.00625000
405 1 8.66875000 32.94125000 29.47375000
406 1 8.66875000 32.94125000 32.94125000
407 1 8.66875000 32.94125000 36.40875000
408 1 8.66875000 32.94125000 39.87625000
409 1 8.66875000 36.40875000 1.73375000
410 1 8.66875000 36.40875000 5.20125000
411 1 8.66875000 36.40875000 8.66875000
412 1 8.66875000 36.40875000 12.13625000
413 1 8.66875000 36.40875000 15.60375000
414 1 8.66875000 36.40875000 19.07125000
415 1 8.66875000 36.40875000 22.53875000
416 1 8.66875000 36.40875000 26.00625000
417 1 8.66875000 36.40875000 29.47375000
418 1 8.66875000 36.40875000 32.94125000
419 1 8.66875000 36.40875000 36.40875000
420 1 8.66875000 36.40875000 39.87625000
421 1 8.66875000 39.87625000 1.73375000
422 1 8.66875000 39.87625000 5.20125000
423 1 8.66875000 39.87625000 8.66875000
424 1 8.66875000 39.87625000 12.13625000
425 1 8.66875000 39.87625000 15.60375000
426 1 8.66875000 39.87625000 19.07125000
427 1 8.66875000 39.87625000 22.53875000
428 1 8.66875000 39.87625000 26.00625000
429 1 8.66875000 39.87625000 29.47375000
430 1 8.66875000 39.87625000 32.94125000
431 1 8.66875000 39.87625000 36.40875000
432 1 8.66875000 39.87625000 39.87625000
433 1 12.13625000 1.73375000 1.73375000
434 1 12.13625000 1.73375000 5.20125000
435 1 12.13625000 1.73375000 8.66875000
436 1 12.13625000 1.73375000 12.13625000
437 1 12.13625000 1.73375000 15.60375000
438 1 12.13625000 1.73375000 19.07125000
439 1 12.13625000 1.73375000 22.53875000
440 1 12.13625000 1.73375000 26.00625000
441 1 12.13625000 1.73375000 29.47375000
442 1 12.13625000 1.73375000 32.94125000
443 1 12.13625000 1.73375000 36.40875000
444 1 12.13625000 1.73375000 39.87625000
445 1 12.13625000 5.20125000 1.73375000
446 1 12.13625000 5.20125000 5.20125000
447 1 12.13625000 5.20125000 8.66875000
448 1 12.13625000 5.20125000 12.13625000
449 1 12.13625000 5.20125000 15.60375000
450 1 12.13625000 5.20125000 19.07125000
451 1 12.13625000 5.20125000 22.53875000
452 1 12.13625000 5.20125000 26.00625000
453 1 12.13625000 5.20125000 29.47375000
454 1 12.13625000 5.20125000 32.94125000
455 1 12.13625000 5.20125000 36.40875000
456 1 12.13625000 5.20125000 39.87625000
457 1 12.13625000 8.66875000 1.73375000
458 1 12.13625000 8.66875000 5.20125000
459 1 12.13625000 8.66875000 8.66875000
460 1 12.13625000 8.66875000 12.13625000
461 1 12.13625000 8.66875000 15.60375000
462 1 12.13625000 8.66875000 19.07125000
463 1 12.13625000 8.66875000 22.53875000
464 1 12.13625000 8.66875000 26.00625000
465 1 12.13625000 8.66875000 29.47375000
466 1 12.13625000 8.66875000 32.94125000
467 1 12.13625000 8.66875000 36.40875000
468 1 12.13625000 8.66875000 39.87625000
469 1 12.13625000 12.13625000 1.73375000
470 1 12.13625000 12.13625000 5.20125000
471 1 12.13625000 12.13625000 8.66875000
472 1 12.13625000 12.13625000 12.13625000
473 1 12.13625000 12.13625000 15.60375000
474 1 12.13625000 12.13625000 19.07125000
475 1 12.13625000 12.13625000 22.53875000
476 1 12.13625000 12.13625000 26.00625000
477 1 12.13625000 12.13625000 29.47375000
478 1 12.13625000 12.13625000 32.94125000
479 1 12.13625000 12.13625000 36.40875000
480 1 12.13625000 12.13625000 39.87625000
481 1 12.13625000 15.60375000 1.73375000
482 1 12.13625000 15.60375000 5.20125000
483 1 12.13625000 15.60375000 8.66875000
484 1 12.13625000 15.60375000 12.13625000
485 1 12.13625000 15.60375000 15.60375000
486 1 12.13625000 15.60375000 19.07125000
487 1 12.13625000 15.60375000 22.53875000
488 1 12.13625000 15.60375000 26.00625000
489 1 12.13625000 15.60375000 29.47375000
490 1 12.13625000 15.60375000 32.94125000
491 1 12.13625000 15.60375000 36.40875000
492 1 12.13625000 15.60375000 39.87625000
493 1 12.13625000 19.07125000 1.73375000
494 1 12.13625000 19.07125000 5.20125000
495 1 12.13625000 19.07125000 8.66875000
496 1 12.13625000 19.07125000 12.13625000
497 1 12.13625000 19.07125000 15.60375000
498 1 12.13625000 19.07125000 19.07125000
499 1 12.13625000 19.07125000 22.53875000
500 1 12.13625000 19.07125000 26.00625000
501 1 12.13625000 19.07125000 29.47375000
502 1 12.13625000 19.07125000 32.94125000
503 1 12.13625000 19.07125000 36.40875000
504 1 12.13625000 19.07125000 39.87625000
505 1 12.13625000 22.53875000 1.73375000
506 1 12.13625000 22.53875000 5.20125000
507 1 12.13625000 22.53875000 8.66875000
508 1 12.13625000 22.53875000 12.13625000
509 1 12.13625000 22.53875000 15.60375000
510 1 12.13625000 22.53875000 19.07125000
511 1 12.13625000 22.53875000 22.53875000
512 1 12.13625000 22.53875000 26.00625000
513 1 12.13625000 22.53875000 29.47375000
514 1 12.13625000 22.53875000 32.94125000
515 1 12.13625000 22.53875000 36.40875000
516 1 12.13625000 22.53875000 39.87625000
517 1 12.13625000 26.00625000 1.73375000
518 1 12.13625000 26.00625000 5.20125000
519 1 12.13625000 26.00625000 8.66875000
520 1 12.13625000 26.00625000 12.13625000
521 1 12.13625000 26.00625000 15.60375000
522 1 12.13625000 26.00625000 19.07125000
523 1 12.13625000 26.00625000 22.53875000
524 1 12.13625000 26.00625000 26.00625000
525 1 12.13625000 26.00625000 29.47375000
526 1 12.13625000 26.00625000 32.94125000
527 1 12.13625000 26.00625000 36.40875000
528 1 12.13625000 26.00625000 39.87625000
529 1 12.13625000 29.47375000 1.73375000
530 1 12.13625000 29.47375000 5.20125000
531 1 12.13625000 29.47375000 8.66875000
532 1 12.13625000 29.47375000 12.13625000
533 1 12.13625000 29.47375000 15.60375000
534 1 12.13625000 29.47375000 19.07125000
535 1 12.13625000 29.47375000 22.53875000
536 1 12.13625000 29.47375000 26.00625000
537 1 12.13625000 29.47375000 29.47375000
538 1 12.13625000 29.47375000 32.94125000
539 1 12.13625000 29.47375000 36.40875000
540 1 12.13625000 29.47375000 39.87625000
541 1 12.13625000 32.94125000 1.73375000
542 1 12.13625000 32.94125000 5.20125000
543 1 12.13625000 32.94125000 8.66875000
544 1 12.13625000 32.94125000 12.13625000
545 1 12.13625000 32.94125000 15.60375000
546 1 12.13625000 32.94125000 19.07125000
547 1 12.13625000 32.94125000 22.53875000
548 1 12.13625000 32.94125000 26.00625000
549 1 12.13625000 32.94125000 29.47375000
550 1 12.13625000 32.94125000 32.94125000
551 1 12.13625000 32.94125000 36.40875000
552 1 12.13625000 32.94125000 39.87625000
553 1 12.13625000 36.40875000 1.73375000
554 1 12.13625000 36.40875000 5.20125000
555 1 12.13625000 36.40875000 8.66875000
556 1 12.13625000 36.40875000 12.13625000
557 1 12.13625000 36.40875000 15.60375000
558 1 12.13625000 36.40875000 19.07125000
559 1 12.13625000 36.40875000 22.53875000
560 1 12.13625000 36.40875000 26.00625000
561 1 12.13625000 36.40875000 29.47375000
562 1 12.13625000 36.40875000 32.94125000
563 1 12.13625000 36.40875000 36.40875000
564 1 12.13625000 36.40875000 39.87625000
565 1 12.13625000 39.87625000 1.73375000
566 1 12.13625000 39.87625000 5.20125000
567 1 12.13625000 39.87625000 8.66875000
568 1 12.13625000 39.87625000 12.13625000
569 1 12.13625000 39.87625000 15.60375000
570 1 12.13625000 39.87625000 19.07125000
571 1 12.13625000 39.87625000 22.53875000
572 1 12.13625000 39.87625000 26.00625000
573 1 12.13625000 39.87625000 29.47375000
574 1 12.13625000 39.87625000 32.94125000
575 1 12.13625000 39.87625000 36.40875000
576 1 12.13625000 39.87625000 39.87625000
577 1 15.60375000 1.73375000 1.73375000
578 1 15.60375000 1.73375000 5.20125000
579 1 15.60375000 1.73375000 8.66875000
580 1 15.60375000 1.73375000 12.13625000
581 1 15.60375000 1.73375000 15.60375000
582 1 15.60375000 1.73375000 19.07125000
583 1 15.60375000 1.73375000 22.53875000
584 1 15.60375000 1.73375000 26.00625000
585 1 15.60375000 1.73375000 29.47375000
586 1 15.60375000 1.73375000 32.94125000
587 1 15.60375000 1.73375000 36.40875000
588 1 15.60375000 1.73375000 39.87625000
589 1 15.60375000 5.20125000 1.73375000
590 1 15.60375000 5.20125000 5.20125000
591 1 15.60375000 5.20125000 8.66875000
592 1 15.60375000 5.20125000 12.13625000
593 1 15.60375000 5.20125000 15.60375000
594 1 15.60375000 5.20125000 19.07125000
595 1 15.60375000 5.20125000 22.53875000
596 1 15.60375000 5.20125000 26.00625000
597 1 15.60375000 5.20125000 29.47375000
598 1 15.60375000 5.20125000 32.94125000
599 1 15.60375000 5.20125000 36.40875000
600 1 15.60375000 5.20125000 39.87625000
601 1 15.60375000 8.66875000 1.73375000
602 1 15.60375000 8.66875000 5.20125000
603 1 15.60375000 8.66875000 8.66875000
604 1 15.60375000 8.66875000 12.13625000
605 1 15.60375000 8.66875000 15.60375000
606 1 15.60375000 8.66875000 19.07125000
607 1 15.60375000 8.66875000 22.53875000
608 1 15.60375000 8.66875000 26.00625000
609 1 15.60375000 8.66875000 29.47375000
610 1 15.60375000 8.66875000 32.94125000
611 1 15.60375000 8.66875000 36.40875000
612 1 15.60375000 8.66875000 39.87625000
613 1 15.60375000 12.13625000 1.73375000
614 1 15.60375000 12.13625000 5.20125000
615 1 15.60375000 12.13625000 8.66875000
616 1 15.60375000 12.13625000 12.13625000
617 1 15.60375000 12.13625000 15.60375000
618 1 15.60375000 12.13625000 19.07125000
619 1 15.60375000 12.13625000 22.53875000
620 1 15.60375000 12.13625000 26.00625000
621 1 15.60375000 12.13625000 29.47375000
622 1 15.60375000 12.13625000 32.94125000
623 1 15.60375000 12.13625000 36.40875000
624 1 15.60375000 12.13625000 39.87625000
625 1 15.60375000 15.60375000 1.73375000
626 1 15.60375000 15.60375000 5.20125000
627 1 15.60375000 15.60375000 8.66875000
628 1 15.60375000 15.60375000 12.13625000
629 1 15.60375000 15.60375000 15.60375000
630 1 15.60375000 15.60375000 19.07125000
631 1 15.60375000 15.60375000 22.53875000
632 1 15.60375000 15.60375000 26.00625000
633 1 15.60375000 15.60375000 29.47375000
634 1 15.60375000 15.60375000 32.94125000
635 1 15.60375000 15.60375000 36.40875000
636 1 15.60375000 15.60375000 39.87625000
637 1 15.60375000 19.07125000 1.73375000
638 1 15.60375000 19.07125000 5.20125000
639 1 15.60375000 19.07125000 8.66875000
640 1 15.60375000 19.07125000 12.13625000
641 1 15.60375000 19.07125000 15.60375000
642 1 15.60375000 19.07125000 19.07125000
643 1 15.60375000 19.07125000 22.53875000
644 1 15.60375000 19.07125000 26.00625000
645 1 15.60375000 19.07125000 29.47375000
646 1 15.60375000 19.07125000 32.94125000
647 1 15.60375000 19.07125000 36.40875000
648 1 15.60375000 19.07125000 39.87625000
649 1 15.60375000 22.53875000 1.73375000
650 1 15.60375000 22.53875000 5.20125000
651 1 15.60375000 22.53875000 8.66875000
652 1 15.60375000 22.53875000 12.13625000
653 1 15.60375000 22.53875000 15.60375000
654 1 15.60375000 22.53875000 19.07125000
655 1 15.60375000 22.53875000 22.53875000
656 1 15.60375000 22.53875000 26.00625000
657 1 15.60375000 22.53875000 29.47375000
658 1 15.60375000 22.53875000 32.94125000
659 1 15.60375000 22.53875000 36.40875000
660 1 15.60375000 22.53875000 39.87625000
661 1 15.60375000 26.00625000 1.73375000
662 1 15.60375000 26.00625000 5.20125000
663 1 15.60375000 26.00625000 8.66875000
664 1 15.60375000 26.00625000 12.13625000
665 1 15.60375000 26.00625000 15.60375000
666 1 15.60375000 26.00625000 19.07125000
667 1 15.60375000 26.00625000 22.53875000
668 1 15.60375000 26.00625000 26.00625000
669 1 15.60375000 26.00625000 29.47375000
670 1 15.60375000 26.00625000 32.94125000
671 1 15.60375000 26.00625000 36.40875000
672 1 15.60375000 26.00625000 39.87625000
673 1 15.60375000 29.47375000 1.73375000
674 1 15.60375000 29.47375000 5.20125000
675 1 15.60375000 29.47375000 8.66875000
676 1 15.60375000 29.47375000 12.13625000
677 1 15.60375000 29.47375000 15.60375000
678 1 15.60375000 29.47375000 19.07125000
679 1 15.60375000 29.47375000 22.53875000
680 1 15.60375000 29.47375000 26.00625000
681 1 15.60375000 29.47375000 29.47375000
682 1 15.60375000 29.47375000 32.94125000
683 1 15.60375000 29.47375000 36.40875000
684 1 15.60375000 29.47375000 39.87625000
685 1 15.60375000 32.94125000 1.73375000
686 1 15.60375000 32.94125000 5.20125000
687 1 15.60375000 32.94125000 8.66875000
688 1 15.60375000 32.94125000 12.13625000
689 1 15.60375000 32.94125000 15.60375000
690 1 15.60375000 32.94125000 19.07125000
691 1 15.60375000 32.94125000 22.53875000
692 1 15.60375000 32.94125000 26.00625000
693 1 15.60375000 32.94125000 29.47375000
694 1 15.60375000 32.94125000 32.94125000
695 1 15.60375000 32.94125000 36.40875000
696 1 15.60375000 32.94125000 39.87625000
697 1 15.60375000 36.40875000 1.73375000
698 1 15.60375000 36.40875000 5.20125000
699 1 15.60375000 36.40875000 8.66875000
700 1 15.60375000 36.40875000 12.13625000
701 1 15.60375000 36.40875000 15.60375000
702 1 15.60375000 36.40875000 19.07125000
703 1 15.60375000 36.40875000 22.53875000
704 1 15.60375000 36.40875000 26.00625000
705 1 15.60375000 36.40875000 29.47375000
706 1 15.60375000 36.40875000 32.94125000
707 1 15.60375000 36.40875000 36.40875000
708 1 15.60375000 36.40875000 39.87625000
709 1 15.60375000 39.87625000 1.73375000
710 1 15.60375000 39.87625000 5.20125000
711 1 15.60375000 39.87625000 8.66875000
712 1 15.60375000 39.87625000 12.13625000
713 1 15.60375000 39.87625000 15.60375000
714 1 15.60375000 39.87625000 19.07125000
715 1 15.60375000 39.87625000 22.53875000
716 1 15.60375000 39.87625000 26.00625000
717 1 15.60375000 39.87625000 29.47375000
718 1 15.60375000 39.87625000 32.94125000
719 1 15.60375000 39.87625000 36.40875000
720 1 15.60375000 39.87625000 39.87625000
721 1 19.07125000 1.73375000 1.73375000
722 1 19.07125000 1.73375000 5.20125000
723 1 19.07125000 1.73375000 8.66875000
724 1 19.07125000 1.73375000 12.13625000
725 1 19.07125000 1.73375000 15.60375000
726 1 19.07125000 1.73375000 19.07125000
727 1 19.07125000 1.73375000 22.53875000
728 1 19.07125000 1.73375000 26.00625000
729 1 19.07125000 1.73375000 29.47375000
730 1 19.07125000 1.73375000 32.94125000
731 1 19.07125000 1.73375000 36.40875000
732 1 19.07125000 1.73375000 39.87625000
733 1 19.07125000 5.20125000 1.73375000