LAMMPS Simulation Data
729 atoms
3 atom types

0 12.77 xlo xhi 
0 12.77 ylo yhi 
0 12.77 zlo zhi 

Masses

1 1.0
2 1.0
3 1.0

Atoms

1 1 0.70944444 0.70944444 0.70944444
2 1 0.70944444 0.70944444 2.12833333
3 1 0.70944444 0.70944444 3.54722222
4 1 0.70944444 0.70944444 4.96611111
5 1 0.70944444 0.70944444 6.38500000
6 1 0.70944444 0.70944444 7.80388889
7 1 0.70944444 0.70944444 9.22277778
8 1 0.70944444 0.70944444 10.64166667
9 1 0.70944444 0.70944444 12.06055556
10 1 0.70944444 2.12833333 0.70944444
11 1 0.70944444 2.12833333 2.12833333
12 1 0.70944444 2.12833333 3.54722222
13 1 0.70944444 2.12833333 4.96611111
14 1 0.70944444 2.12833333 6.38500000
15 1 0.70944444 2.12833333 7.80388889
16 1 0.70944444 2.12833333 9.22277778
17 1 0.70944444 2.12833333 10.64166667
18 1 0.70944444 2.12833333 12.06055556
19 1 0.70944444 3.54722222 0.70944444
20 1 0.70944444 3.54722222 2.12833333
21 1 0.70944444 3.54722222 3.54722222
22 1 0.70944444 3.54722222 4.96611111
23 1 0.70944444 3.54722222 6.38500000
24 1 0.70944444 3.54722222 7.80388889
25 1 0.70944444 3.54722222 9.22277778
26 1 0.70944444 3.54722222 10.64166667
27 1 0.70944444 3.54722222 12.06055556
28 1 0.70944444 4.96611111 0.70944444
29 1 0.70944444 4.96611111 2.12833333
30 1 0.70944444 4.96611111 3.54722222
31 1 0.70944444 4.96611111 4.96611111
32 1 0.70944444 4.96611111 6.38500000
33 1 0.70944444 4.96611111 7.80388889
34 1 0.70944444 4.96611111 9.22277778
35 1 0.70944444 4.96611111 10.64166667
36 1 0.70944444 4.96611111 12.06055556
37 1 0.70944444 6.38500000 0.70944444
38 1 0.70944444 6.38500000 2.12833333
39 1 0.70944444 6.38500000 3.54722222
40 1 0.70944444 6.38500000 4.96611111
41 1 0.70944444 6.38500000 6.38500000
42 1 0.70944444 6.38500000 7.80388889
43 1 0.70944444 6.38500000 9.22277778
44 1 0.70944444 6.38500000 10.64166667
45 1 0.70944444 6.38500000 12.06055556
46 1 0.70944444 7.80388889 0.70944444
47 1 0.70944444 7.80388889 2.12833333
48 1 0.70944444 7.80388889 3.54722222
49 1 0.70944444 7.80388889 4.96611111
50 1 0.70944444 7.80388889 6.38500000
51 1 0.70944444 7.80388889 7.80388889
52 1 0.70944444 7.80388889 9.22277778
53 1 0.70944444 7.80388889 10.64166667
54 1 0.70944444 7.80388889 12.06055556
55 1 0.70944444 9.22277778 0.70944444
56 1 0.70944444 9.22277778 2.12833333
57 1 0.70944444 9.22277778 3.54722222
58 1 0.70944444 9.22277778 4.96611111
59 1 0.70944444 9.22277778 6.38500000
60 1 0.70944444 9.22277778 7.80388889
61 1 0.70944444 9.22277778 9.22277778
62 1 0.70944444 9.22277778 10.64166667
63 1 0.70944444 9.22277778 12.06055556
64 1 0.70944444 10.64166667 0.70944444
65 1 0.70944444 10.64166667 2.12833333
66 1 0.70944444 10.64166667 3.54722222
67 1 0.70944444 10.64166667 4.96611111
68 1 0.70944444 10.64166667 6.38500000
69 1 0.70944444 10.64166667 7.80388889
70 1 0.70944444 10.64166667 9.22277778
71 1 0.70944444 10.64166667 10.64166667
72 1 0.70944444 10.64166667 12.06055556
73 1 0.70944444 12.06055556 0.70944444
74 1 0.70944444 12.06055556 2.12833333
75 1 0.70944444 12.06055556 3.54722222
76 1 0.70944444 12.06055556 4.96611111
77 1 0.70944444 12.06055556 6.38500000
78 1 0.70944444 12.06055556 7.80388889
79 1 0.70944444 12.06055556 9.22277778
80 1 0.70944444 12.06055556 10.64166667
81 1 0.70944444 12.06055556 12.06055556
82 1 2.12833333 0.70944444 0.70944444
83 1 2.12833333 0.70944444 2.12833333
84 1 2.12833333 0.70944444 3.54722222
85 1 2.12833333 0.70944444 4.96611111
86 1 2.12833333 0.70944444 6.38500000
87 1 2.12833333 0.70944444 7.80388889
88 1 2.12833333 0.70944444 9.22277778
89 1 2.12833333 0.70944444 10.64166667
90 1 2.12833333 0.70944444 12.06055556
91 1 2.12833333 2.12833333 0.70944444
92 1 2.12833333 2.12833333 2.12833333
93 1 2.12833333 2.12833333 3.54722222
94 1 2.12833333 2.12833333 4.96611111
95 1 2.12833333 2.12833333 6.38500000
96 1 2.12833333 2.12833333 7.80388889
97 1 2.12833333 2.12833333 9.22277778
98 1 2.12833333 2.12833333 10.64166667
99 1 2.12833333 2.12833333 12.06055556
100 1 2.12833333 3.54722222 0.70944444
101 1 2.12833333 3.54722222 2.12833333
102 1 2.12833333 3.54722222 3.54722222
103 1 2.12833333 3.54722222 4.96611111
104 1 2.12833333 3.54722222 6.38500000
105 1 2.12833333 3.54722222 7.80388889
106 1 2.12833333 3.54722222 9.22277778
107 1 2.12833333 3.54722222 10.64166667
108 1 2.12833333 3.54722222 12.06055556
109 1 2.12833333 4.96611111 0.70944444
110 1 2.12833333 4.96611111 2.12833333
111 1 2.12833333 4.96611111 3.54722222
112 1 2.12833333 4.96611111 4.96611111
113 1 2.12833333 4.96611111 6.38500000
114 1 2.12833333 4.96611111 7.80388889
115 1 2.12833333 4.96611111 9.22277778
116 1 2.12833333 4.96611111 10.64166667
117 1 2.12833333 4.96611111 12.06055556
118 1 2.12833333 6.38500000 0.70944444
119 1 2.12833333 6.38500000 2.12833333
120 1 2.12833333 6.38500000 3.54722222
121 1 2.12833333 6.38500000 4.96611111
122 1 2.12833333 6.38500000 6.38500000
123 1 2.12833333 6.38500000 7.80388889
124 1 2.12833333 6.38500000 9.22277778
125 1 2.12833333 6.38500000 10.64166667
126 1 2.12833333 6.38500000 12.06055556
127 1 2.12833333 7.80388889 0.70944444
128 1 2.12833333 7.80388889 2.12833333
129 1 2.12833333 7.80388889 3.54722222
130 1 2.12833333 7.80388889 4.96611111
131 1 2.12833333 7.80388889 6.38500000
132 1 2.12833333 7.80388889 7.80388889
133 1 2.12833333 7.80388889 9.22277778
134 1 2.12833333 7.80388889 10.64166667
135 1 2.12833333 7.80388889 12.06055556
136 1 2.12833333 9.22277778 0.70944444
137 1 2.12833333 9.22277778 2.12833333
138 1 2.12833333 9.22277778 3.54722222
139 1 2.12833333 9.22277778 4.96611111
140 1 2.12833333 9.22277778 6.38500000
141 1 2.12833333 9.22277778 7.80388889
142 1 2.12833333 9.22277778 9.22277778
143 1 2.12833333 9.22277778 10.64166667
144 1 2.12833333 9.22277778 12.06055556
145 1 2.12833333 10.64166667 0.70944444
146 1 2.12833333 10.64166667 2.12833333
147 1 2.12833333 10.64166667 3.54722222
148 1 2.12833333 10.64166667 4.96611111
149 1 2.12833333 10.64166667 6.38500000
150 1 2.12833333 10.64166667 7.80388889
151 1 2.12833333 10.64166667 9.22277778
152 1 2.12833333 10.64166667 10.64166667
153 1 2.12833333 10.64166667 12.06055556
154 1 2.12833333 12.06055556 0.70944444
155 1 2.12833333 12.06055556 2.12833333
156 1 2.12833333 12.06055556 3.54722222
157 1 2.12833333 12.06055556 4.96611111
158 1 2.12833333 12.06055556 6.38500000
159 1 2.12833333 12.06055556 7.80388889
160 1 2.12833333 12.06055556 9.22277778
161 1 2.12833333 12.06055556 10.64166667
162 1 2.12833333 12.06055556 12.06055556
163 1 3.54722222 0.70944444 0.70944444
164 1 3.54722222 0.70944444 2.12833333
165 1 3.54722222 0.70944444 3.54722222
166 1 3.54722222 0.70944444 4.96611111
167 1 3.54722222 0.70944444 6.38500000
168 1 3.54722222 0.70944444 7.80388889
169 1 3.54722222 0.70944444 9.22277778
170 1 3.54722222 0.70944444 10.64166667
171 1 3.54722222 0.70944444 12.06055556
172 1 3.54722222 2.12833333 0.70944444
173 1 3.54722222 2.12833333 2.12833333
174 1 3.54722222 2.12833333 3.54722222
175 1 3.54722222 2.12833333 4.96611111
176 1 3.54722222 2.12833333 6.38500000
177 1 3.54722222 2.12833333 7.80388889
178 1 3.54722222 2.12833333 9.22277778
179 1 3.54722222 2.12833333 10.64166667
180 1 3.54722222 2.12833333 12.06055556
181 1 3.54722222 3.54722222 0.70944444
182 1 3.54722222 3.54722222 2.12833333
183 1 3.54722222 3.54722222 3.54722222
184 1 3.54722222 3.54722222 4.96611111
185 1 3.54722222 3.54722222 6.38500000
186 1 3.54722222 3.54722222 7.80388889
187 1 3.54722222 3.54722222 9.22277778
188 1 3.54722222 3.54722222 10.64166667
189 1 3.54722222 3.54722222 12.06055556
190 1 3.54722222 4.96611111 0.70944444
191 1 3.54722222 4.96611111 2.12833333
192 1 3.54722222 4.96611111 3.54722222
193 1 3.54722222 4.96611111 4.96611111
194 1 3.54722222 4.96611111 6.38500000
195 1 3.54722222 4.96611111 7.80388889
196 1 3.54722222 4.96611111 9.22277778
197 1 3.54722222 4.96611111 10.64166667
198 1 3.54722222 4.96611111 12.06055556
199 1 3.54722222 6.38500000 0.70944444
200 1 3.54722222 6.38500000 2.12833333
201 1 3.54722222 6.38500000 3.54722222
202 1 3.54722222 6.38500000 4.96611111
203 1 3.54722222 6.38500000 6.38500000
204 1 3.54722222 6.38500000 7.80388889
205 1 3.54722222 6.38500000 9.22277778
206 1 3.54722222 6.38500000 10.64166667
207 1 3.54722222 6.38500000 12.06055556
208 1 3.54722222 7.80388889 0.70944444
209 1 3.54722222 7.80388889 2.12833333
210 1 3.54722222 7.80388889 3.54722222
211 1 3.54722222 7.80388889 4.96611111
212 1 3.54722222 7.80388889 6.38500000
213 1 3.54722222 7.80388889 7.80388889
214 1 3.54722222 7.80388889 9.22277778
215 1 3.54722222 7.80388889 10.64166667
216 1 3.54722222 7.80388889 12.06055556
217 1 3.54722222 9.22277778 0.70944444
218 1 3.54722222 9.22277778 2.12833333
219 1 3.54722222 9.22277778 3.54722222
220 1 3.54722222 9.22277778 4.96611111
221 1 3.54722222 9.22277778 6.38500000
222 1 3.54722222 9.22277778 7.80388889
223 1 3.54722222 9.22277778 9.22277778
224 1 3.54722222 9.22277778 10.64166667
225 1 3.54722222 9.22277778 12.06055556
226 1 3.54722222 10.64166667 0.70944444
227 1 3.54722222 10.64166667 2.12833333
228 1 3.54722222 10.64166667 3.54722222
229 1 3.54722222 10.64166667 4.96611111
230 1 3.54722222 10.64166667 6.38500000
231 1 3.54722222 10.64166667 7.80388889
232 1 3.54722222 10.64166667 9.22277778
233 1 3.54722222 10.64166667 10.64166667
234 1 3.54722222 10.64166667 12.06055556
235 1 3.54722222 12.06055556 0.70944444
236 1 3.54722222 12.06055556 2.12833333
237 1 3.54722222 12.06055556 3.54722222
238 1 3.54722222 12.06055556 4.96611111
239 1 3.54722222 12.06055556 6.38500000
240 1 3.54722222 12.06055556 7.80388889
241 1 3.54722222 12.06055556 9.22277778
242 1 3.54722222 12.06055556 10.64166667
243 1 3.54722222 12.06055556 12.06055556
244 2 4.96611111 0.70944444 0.70944444
245 2 4.96611111 0.70944444 2.12833333
246 2 4.96611111 0.70944444 3.54722222
247 2 4.96611111 0.70944444 4.96611111
248 2 4.96611111 0.70944444 6.38500000
249 2 4.96611111 0.70944444 7.80388889
250 2 4.96611111 0.70944444 9.22277778
251 2 4.96611111 0.70944444 10.64166667
252 2 4.96611111 0.70944444 12.06055556
253 2 4.96611111 2.12833333 0.70944444
254 2 4.96611111 2.12833333 2.12833333
255 2 4.96611111 2.12833333 3.54722222
256 2 4.96611111 2.12833333 4.96611111
257 2 4.96611111 2.12833333 6.38500000
258 2 4.96611111 2.12833333 7.80388889
259 2 4.96611111 2.12833333 9.22277778
260 2 4.96611111 2.12833333 10.64166667
261 2 4.96611111 2.12833333 12.06055556
262 2 4.96611111 3.54722222 0.70944444
263 2 4.96611111 3.54722222 2.12833333
264 2 4.96611111 3.54722222 3.54722222
265 2 4.96611111 3.54722222 4.96611111
266 2 4.96611111 3.54722222 6.38500000
267 2 4.96611111 3.54722222 7.80388889
268 2 4.96611111 3.54722222 9.22277778
269 2 4.96611111 3.54722222 10.64166667
270 2 4.96611111 3.54722222 12.06055556
271 2 4.96611111 4.96611111 0.70944444
272 2 4.96611111 4.96611111 2.12833333
273 2 4.96611111 4.96611111 3.54722222
274 2 4.96611111 4.96611111 4.96611111
275 2 4.96611111 4.96611111 6.38500000
276 2 4.96611111 4.96611111 7.80388889
277 2 4.96611111 4.96611111 9.22277778
278 2 4.96611111 4.96611111 10.64166667
279 2 4.96611111 4.96611111 12.06055556
280 2 4.96611111 6.38500000 0.70944444
281 2 4.96611111 6.38500000 2.12833333
282 2 4.96611111 6.38500000 3.54722222
283 2 4.96611111 6.38500000 4.96611111
284 2 4.96611111 6.38500000 6.38500000
285 2 4.96611111 6.38500000 7.80388889
286 2 4.96611111 6.38500000 9.22277778
287 2 4.96611111 6.38500000 10.64166667
288 2 4.96611111 6.38500000 12.06055556
289 2 4.96611111 7.80388889 0.70944444
290 2 4.96611111 7.80388889 2.12833333
291 2 4.96611111 7.80388889 3.54722222
292 2 4.96611111 7.80388889 4.96611111
293 2 4.96611111 7.80388889 6.38500000
294 2 4.96611111 7.80388889 7.80388889
295 2 4.96611111 7.80388889 9.22277778
296 2 4.96611111 7.80388889 10.64166667
297 2 4.96611111 7.80388889 12.06055556
298 2 4.96611111 9.22277778 0.70944444
299 2 4.96611111 9.22277778 2.12833333
300 2 4.96611111 9.22277778 3.54722222
301 2 4.96611111 9.22277778 4.96611111
302 2 4.96611111 9.22277778 6.38500000
303 2 4.96611111 9.22277778 7.80388889
304 2 4.96611111 9.22277778 9.22277778
305 2 4.96611111 9.22277778 10.64166667
306 2 4.96611111 9.22277778 12.06055556
307 2 4.96611111 10.64166667 0.70944444
308 2 4.96611111 10.64166667 2.12833333
309 2 4.96611111 10.64166667 3.54722222
310 2 4.96611111 10.64166667 4.96611111
311 2 4.96611111 10.64166667 6.38500000
312 2 4.96611111 10.64166667 7.80388889
313 2 4.96611111 10.64166667 9.22277778
314 2 4.96611111 10.64166667 10.64166667
315 2 4.96611111 10.64166667 12.06055556
316 2 4.96611111 12.06055556 0.70944444
317 2 4.96611111 12.06055556 2.12833333
318 2 4.96611111 12.06055556 3.54722222
319 2 4.96611111 12.06055556 4.96611111
320 2 4.96611111 12.06055556 6.38500000
321 2 4.96611111 12.06055556 7.80388889
322 2 4.96611111 12.06055556 9.22277778
323 2 4.96611111 12.06055556 10.64166667
324 2 4.96611111 12.06055556 12.06055556
325 2 6.38500000 0.70944444 0.70944444
326 2 6.38500000 0.70944444 2.12833333
327 2 6.38500000 0.70944444 3.54722222
328 2 6.38500000 0.70944444 4.96611111
329 2 6.38500000 0.70944444 6.38500000
330 2 6.38500000 0.70944444 7.80388889
331 2 6.38500000 0.70944444 9.22277778
332 2 6.38500000 0.70944444 10.64166667
333 2 6.38500000 0.70944444 12.06055556
334 2 6.38500000 2.12833333 0.70944444
335 2 6.38500000 2.12833333 2.12833333
336 2 6.38500000 2.12833333 3.54722222
337 2 6.38500000 2.12833333 4.96611111
338 2 6.38500000 2.12833333 6.38500000
339 2 6.38500000 2.12833333 7.80388889
340 2 6.38500000 2.12833333 9.22277778
341 2 6.38500000 2.12833333 10.64166667
342 2 6.38500000 2.12833333 12.06055556
343 2 6.38500000 3.54722222 0.70944444
344 2 6.38500000 3.54722222 2.12833333
345 2 6.38500000 3.54722222 3.54722222
346 2 6.38500000 3.54722222 4.96611111
347 2 6.38500000 3.54722222 6.38500000
348 2 6.38500000 3.54722222 7.80388889
349 2 6.38500000 3.54722222 9.22277778
350 2 6.38500000 3.54722222 10.64166667
351 2 6.38500000 3.54722222 12.06055556
352 2 6.38500000 4.96611111 0.70944444
353 2 6.38500000 4.96611111 2.12833333
354 2 6.38500000 4.96611111 3.54722222
355 2 6.38500000 4.96611111 4.96611111
356 2 6.38500000 4.96611111 6.38500000
357 2 6.38500000 4.96611111 7.80388889
358 2 6.38500000 4.96611111 9.22277778
359 2 6.38500000 4.96611111 10.64166667
360 2 6.38500000 4.96611111 12.06055556
361 2 6.38500000 6.38500000 0.70944444
362 2 6.38500000 6.38500000 2.12833333
363 2 6.38500000 6.38500000 3.54722222
364 2 6.38500000 6.38500000 4.96611111
365 2 6.38500000 6.38500000 6.38500000
366 2 6.38500000 6.38500000 7.80388889
367 2 6.38500000 6.38500000 9.22277778
368 2 6.38500000 6.38500000 10.64166667
369 2 6.38500000 6.38500000 12.06055556
370 2 6.38500000 7.80388889 0.70944444
371 2 6.38500000 7.80388889 2.12833333
372 2 6.38500000 7.80388889 3.54722222
373 2 6.38500000 7.80388889 4.96611111
374 2 6.38500000 7.80388889 6.38500000
375 2 6.38500000 7.80388889 7.80388889
376 2 6.38500000 7.80388889 9.22277778
377 2 6.38500000 7.80388889 10.64166667
378 2 6.38500000 7.80388889 12.06055556
379 2 6.38500000 9.22277778 0.70944444
380 2 6.38500000 9.22277778 2.12833333
381 2 6.38500000 9.22277778 3.54722222
382 2 6.38500000 9.22277778 4.96611111
383 2 6.38500000 9.22277778 6.38500000
384 2 6.38500000 9.22277778 7.80388889
385 2 6.38500000 9.22277778 9.22277778
386 2 6.38500000 9.22277778 10.64166667
387 2 6.38500000 9.22277778 12.06055556
388 2 6.38500000 10.64166667 0.70944444
389 2 6.38500000 10.64166667 2.12833333
390 2 6.38500000 10.64166667 3.54722222
391 2 6.38500000 10.64166667 4.96611111
392 2 6.38500000 10.64166667 6.38500000
393 2 6.38500000 10.64166667 7.80388889
394 2 6.38500000 10.64166667 9.22277778
395 2 6.38500000 10.64166667 10.64166667
396 2 6.38500000 10.64166667 12.06055556
397 2 6.38500000 12.06055556 0.70944444
398 2 6.38500000 12.06055556 2.12833333
399 2 6.38500000 12.06055556 3.54722222
400 2 6.38500000 12.06055556 4.96611111
401 2 6.38500000 12.06055556 6.38500000
402 2 6.38500000 12.06055556 7.80388889
403 2 6.38500000 12.06055556 9.22277778
404 2 6.38500000 12.06055556 10.64166667
405 2 6.38500000 12.06055556 12.06055556
406 2 7.80388889 0.70944444 0.70944444
407 2 7.80388889 0.70944444 2.12833333
408 2 7.80388889 0.70944444 3.54722222
409 2 7.80388889 0.70944444 4.96611111
410 2 7.80388889 0.70944444 6.38500000
411 2 7.80388889 0.70944444 7.80388889
412 2 7.80388889 0.70944444 9.22277778
413 2 7.80388889 0.70944444 10.64166667
414 2 7.80388889 0.70944444 12.06055556
415 2 7.80388889 2.12833333 0.70944444
416 2 7.80388889 2.12833333 2.12833333
417 2 7.80388889 2.12833333 3.54722222
418 2 7.80388889 2.12833333 4.96611111
419 2 7.80388889 2.12833333 6.38500000
420 2 7.80388889 2.12833333 7.80388889
421 2 7.80388889 2.12833333 9.22277778
422 2 7.80388889 2.12833333 10.64166667
423 2 7.80388889 2.12833333 12.06055556
424 2 7.80388889 3.54722222 0.70944444
425 2 7.80388889 3.54722222 2.12833333
426 2 7.80388889 3.54722222 3.54722222
427 2 7.80388889 3.54722222 4.96611111
428 2 7.80388889 3.54722222 6.38500000
429 2 7.80388889 3.54722222 7.80388889
430 2 7.80388889 3.54722222 9.22277778
431 2 7.80388889 3.54722222 10.64166667
432 2 7.80388889 3.54722222 12.06055556
433 2 7.80388889 4.96611111 0.70944444
434 2 7.80388889 4.96611111 2.12833333
435 2 7.80388889 4.96611111 3.54722222
436 2 7.80388889 4.96611111 4.96611111
437 2 7.80388889 4.96611111 6.38500000
438 2 7.80388889 4.96611111 7.80388889
439 2 7.80388889 4.96611111 9.22277778
440 2 7.80388889 4.96611111 10.64166667
441 2 7.80388889 4.96611111 12.06055556
442 2 7.80388889 6.38500000 0.70944444
443 2 7.80388889 6.38500000 2.12833333
444 2 7.80388889 6.38500000 3.54722222
445 2 7.80388889 6.38500000 4.96611111
446 2 7.80388889 6.38500000 6.38500000
447 2 7.80388889 6.38500000 7.80388889
448 2 7.80388889 6.38500000 9.22277778
449 2 7.80388889 6.38500000 10.64166667
450 2 7.80388889 6.38500000 12.06055556
451 2 7.80388889 7.80388889 0.70944444
452 2 7.80388889 7.80388889 2.12833333
453 2 7.80388889 7.80388889 3.54722222
454 2 7.80388889 7.80388889 4.96611111
455 2 7.80388889 7.80388889 6.38500000
456 2 7.80388889 7.80388889 7.80388889
457 2 7.80388889 7.80388889 9.22277778
458 2 7.80388889 7.80388889 10.64166667
459 2 7.80388889 7.80388889 12.06055556
460 2 7.80388889 9.22277778 0.70944444
461 2 7.80388889 9.22277778 2.12833333
462 2 7.80388889 9.22277778 3.54722222
463 2 7.80388889 9.22277778 4.96611111
464 2 7.80388889 9.22277778 6.38500000
465 2 7.80388889 9.22277778 7.80388889
466 2 7.80388889 9.22277778 9.22277778
467 2 7.80388889 9.22277778 10.64166667
468 2 7.80388889 9.22277778 12.06055556
469 2 7.80388889 10.64166667 0.70944444
470 2 7.80388889 10.64166667 2.12833333
471 2 7.80388889 10.64166667 3.54722222
472 2 7.80388889 10.64166667 4.96611111
473 2 7.80388889 10.64166667 6.38500000
474 2 7.80388889 10.64166667 7.80388889
475 2 7.80388889 10.64166667 9.22277778
476 2 7.80388889 10.64166667 10.64166667
477 2 7.80388889 10.64166667 12.06055556
478 2 7.80388889 12.06055556 0.70944444
479 2 7.80388889 12.06055556 2.12833333
480 2 7.80388889 12.06055556 3.54722222
481 2 7.80388889 12.06055556 4.96611111
482 2 7.80388889 12.06055556 6.38500000
483 2 7.80388889 12.06055556 7.80388889
484 2 7.80388889 12.06055556 9.22277778
485 2 7.80388889 12.06055556 10.64166667
486 2 7.80388889 12.06055556 12.06055556
487 3 9.22277778 0.70944444 0.70944444
488 3 9.22277778 0.70944444 2.12833333
489 3 9.22277778 0.70944444 3.54722222
490 3 9.22277778 0.70944444 4.96611111
491 3 9.22277778 0.70944444 6.38500000
492 3 9.22277778 0.70944444 7.80388889
493 3 9.22277778 0.70944444 9.22277778
494 3 9.22277778 0.70944444 10.64166667
495 3 9.22277778 0.70944444 12.06055556
496 3 9.22277778 2.12833333 0.70944444
497 3 9.22277778 2.12833333 2.12833333
498 3 9.22277778 2.12833333 3.54722222
499 3 9.22277778 2.12833333 4.96611111
500 3 9.22277778 2.12833333 6.38500000
501 3 9.22277778 2.12833333 7.80388889
502 3 9.22277778 2.12833333 9.22277778
503 3 9.22277778 2.12833333 10.64166667
504 3 9.22277778 2.12833333 12.06055556
505 3 9.22277778 3.54722222 0.70944444
506 3 9.22277778 3.54722222 2.12833333
507 3 9.22277778 3.54722222 3.54722222
508 3 9.22277778 3.54722222 4.96611111
509 3 9.22277778 3.54722222 6.38500000
510 3 9.22277778 3.54722222 7.80388889
511 3 9.22277778 3.54722222 9.22277778
512 3 9.22277778 3.54722222 10.64166667
513 3 9.22277778 3.54722222 12.06055556
514 3 9.22277778 4.96611111 0.70944444
515 3 9.22277778 4.96611111 2.12833333
516 3 9.22277778 4.96611111 3.54722222
517 3 9.22277778 4.96611111 4.96611111
518 3 9.22277778 4.96611111 6.38500000
519 3 9.22277778 4.96611111 7.80388889
520 3 9.22277778 4.96611111 9.22277778
521 3 9.22277778 4.96611111 10.64166667
522 3 9.22277778 4.96611111 12.06055556
523 3 9.22277778 6.38500000 0.70944444
524 3 9.22277778 6.38500000 2.12833333
525 3 9.22277778 6.38500000 3.54722222
526 3 9.22277778 6.38500000 4.96611111
527 3 9.22277778 6.38500000 6.38500000
528 3 9.22277778 6.38500000 7.80388889
529 3 9.22277778 6.38500000 9.22277778
530 3 9.22277778 6.38500000 10.64166667
531 3 9.22277778 6.38500000 12.06055556
532 3 9.22277778 7.80388889 0.70944444
533 3 9.22277778 7.80388889 2.12833333
534 3 9.22277778 7.80388889 3.54722222
535 3 9.22277778 7.80388889 4.96611111
536 3 9.22277778 7.80388889 6.38500000
537 3 9.22277778 7.80388889 7.80388889
538 3 9.22277778 7.80388889 9.22277778
539 3 9.22277778 7.80388889 10.64166667
540 3 9.22277778 7.80388889 12.06055556
541 3 9.22277778 9.22277778 0.70944444
542 3 9.22277778 9.22277778 2.12833333
543 3 9.22277778 9.22277778 3.54722222
544 3 9.22277778 9.22277778 4.96611111
545 3 9.22277778 9.22277778 6.38500000
546 3 9.22277778 9.22277778 7.80388889
547 3 9.22277778 9.22277778 9.22277778
548 3 9.22277778 9.22277778 10.64166667
549 3 9.22277778 9.22277778 12.06055556
550 3 9.22277778 10.64166667 0.70944444
551 3 9.22277778 10.64166667 2.12833333
552 3 9.22277778 10.64166667 3.54722222
553 3 9.22277778 10.64166667 4.96611111
554 3 9.22277778 10.64166667 6.38500000
555 3 9.22277778 10.64166667 7.80388889
556 3 9.22277778 10.64166667 9.22277778
557 3 9.22277778 10.64166667 10.64166667
558 3 9.22277778 10.64166667 12.06055556
559 3 9.22277778 12.06055556 0.70944444
560 3 9.22277778 12.06055556 2.12833333
561 3 9.22277778 12.06055556 3.54722222
562 3 9.22277778 12.06055556 4.96611111
563 3 9.22277778 12.06055556 6.38500000
564 3 9.22277778 12.06055556 7.80388889
565 3 9.22277778 12.06055556 9.22277778
566 3 9.22277778 12.06055556 10.64166667
567 3 9.22277778 12.06055556 12.06055556
568 3 10.64166667 0.70944444 0.70944444
569 3 10.64166667 0.70944444 2.12833333
570 3 10.64166667 0.70944444 3.54722222
571 3 10.64166667 0.70944444 4.96611111
572 3 10.64166667 0.70944444 6.38500000
573 3 10.64166667 0.70944444 7.80388889
574 3 10.64166667 0.70944444 9.22277778
575 3 10.64166667 0.70944444 10.64166667
576 3 10.64166667 0.70944444 12.06055556
577 3 10.64166667 2.12833333 0.70944444
578 3 10.64166667 2.12833333 2.12833333
579 3 10.64166667 2.12833333 3.54722222
580 3 10.64166667 2.12833333 4.96611111
581 3 10.64166667 2.12833333 6.38500000
582 3 10.64166667 2.12833333 7.80388889
583 3 10.64166667 2.12833333 9.22277778
584 3 10.64166667 2.12833333 10.64166667
585 3 10.64166667 2.12833333 12.06055556
586 3 10.64166667 3.54722222 0.70944444
587 3 10.64166667 3.54722222 2.12833333
588 3 10.64166667 3.54722222 3.54722222
589 3 10.64166667 3.54722222 4.96611111
590 3 10.64166667 3.54722222 6.38500000
591 3 10.64166667 3.54722222 7.80388889
592 3 10.64166667 3.54722222 9.22277778
593 3 10.64166667 3.54722222 10.64166667
594 3 10.64166667 3.54722222 12.06055556
595 3 10.64166667 4.96611111 0.70944444
596 3 10.64166667 4.96611111 2.12833333
597 3 10.64166667 4.96611111 3.54722222
598 3 10.64166667 4.96611111 4.96611111
599 3 10.64166667 4.96611111 6.38500000
600 3 10.64166667 4.96611111 7.80388889
601 3 10.64166667 4.96611111 9.22277778
602 3 10.64166667 4.96611111 10.64166667
603 3 10.64166667 4.96611111 12.06055556
604 3 10.64166667 6.38500000 0.70944444
605 3 10.64166667 6.38500000 2.12833333
606 3 10.64166667 6.38500000 3.54722222
607 3 10.64166667 6.38500000 4.96611111
608 3 10.64166667 6.38500000 6.38500000
609 3 10.64166667 6.38500000 7.80388889
610 3 10.64166667 6.38500000 9.22277778
611 3 10.64166667 6.38500000 10.64166667
612 3 10.64166667 6.38500000 12.06055556
613 3 10.64166667 7.80388889 0.70944444
614 3 10.64166667 7.80388889 2.12833333
615 3 10.64166667 7.80388889 3.54722222
616 3 10.64166667 7.80388889 4.96611111
617 3 10.64166667 7.80388889 6.38500000
618 3 10.64166667 7.80388889 7.80388889
619 3 10.64166667 7.80388889 9.22277778
620 3 10.64166667 7.80388889 10.64166667
621 3 10.64166667 7.80388889 12.06055556
622 3 10.64166667 9.22277778 0.70944444
623 3 10.64166667 9.22277778 2.12833333
624 3 10.64166667 9.22277778 3.54722222
625 3 10.64166667 9.22277778 4.96611111
626 3 10.64166667 9.22277778 6.38500000
627 3 10.64166667 9.22277778 7.80388889
628 3 10.64166667 9.22277778 9.22277778
629 3 10.64166667 9.22277778 10.64166667
630 3 10.64166667 9.22277778 12.06055556
631 3 10.64166667 10.64166667 0.70944444
632 3 10.64166667 10.64166667 2.12833333
633 3 10.64166667 10.64166667 3.54722222
634 3 10.64166667 10.64166667 4.96611111
635 3 10.64166667 10.64166667 6.38500000
636 3 10.64166667 10.64166667 7.80388889
637 3 10.64166667 10.64166667 9.22277778
638 3 10.64166667 10.64166667 10.64166667
639 3 10.64166667 10.64166667 12.06055556
640 3 10.64166667 12.06055556 0.70944444
641 3 10.64166667 12.06055556 2.12833333
642 3 10.64166667 12.06055556 3.54722222
643 3 10.64166667 12.06055556 4.96611111
644 3 10.64166667 12.06055556 6.38500000
645 3 10.64166667 12.06055556 7.80388889
646 3 10.64166667 12.06055556 9.22277778
647 3 10.64166667 12.06055556 10.64166667
648 3 10.64166667 12.06055556 12.06055556
649 3 12.06055556 0.70944444 0.70944444
650 3 12.06055556 0.70944444 2.12833333
651 3 12.06055556 0.70944444 3.54722222
652 3 12.06055556 0.70944444 4.96611111
653 3 12.06055556 0.70944444 6.38500000
654 3 12.06055556 0.70944444 7.80388889
655 3 12.06055556 0.70944444 9.22277778
656 3 12.06055556 0.70944444 10.64166667
657 3 12.06055556 0.70944444 12.06055556
658 3 12.06055556 2.12833333 0.70944444
659 3 12.06055556 2.12833333 2.12833333
660 3 12.06055556 2.12833333 3.54722222
661 3 12.06055556 2.12833333 4.96611111
662 3 12.06055556 2.12833333 6.38500000
663 3 12.06055556 2.12833333 7.80388889
664 3 12.06055556 2.12833333 9.22277778
665 3 12.06055556 2.12833333 10.64166667
666 3 12.06055556 2.12833333 12.06055556
667 3 12.06055556 3.54722222 0.70944444
668 3 12.06055556 3.54722222 2.12833333
669 3 12.06055556 3.54722222 3.54722222
670 3 12.06055556 3.54722222 4.96611111
671 3 12.06055556 3.54722222 6.38500000
672 3 12.06055556 3.54722222 7.80388889
673 3 12.06055556 3.54722222 9.22277778
674 3 12.06055556 3.54722222 10.64166667
675 3 12.06055556 3.54722222 12.06055556
676 3 12.06055556 4.96611111 0.70944444
677 3 12.06055556 4.96611111 2.12833333
678 3 12.06055556 4.96611111 3.54722222
679 3 12.06055556 4.96611111 4.96611111
680 3 12.06055556 4.96611111 6.38500000
681 3 12.06055556 4.96611111 7.80388889
682 3 12.06055556 4.96611111 9.22277778
683 3 12.06055556 4.96611111 10.64166667
684 3 12.06055556 4.96611111 12.06055556
685 3 12.06055556 6.38500000 0.70944444
686 3 12.06055556 6.38500000 2.12833333
687 3 12.06055556 6.38500000 3.54722222
688 3 12.06055556 6.38500000 4.96611111
689 3 12.06055556 6.38500000 6.38500000
690 3 12.06055556 6.38500000 7.80388889
691 3 12.06055556 6.38500000 9.22277778
692 3 12.06055556 6.38500000 10.64166667
693 3 12.06055556 6.38500000 12.06055556
694 3 12.06055556 7.80388889 0.70944444
695 3 12.06055556 7.80388889 2.12833333
696 3 12.06055556 7.80388889 3.54722222
697 3 12.06055556 7.80388889 4.96611111
698 3 12.06055556 7.80388889 6.38500000
699 3 12.06055556 7.80388889 7.80388889
700 3 12.06055556 7.80388889 9.22277778
701 3 12.06055556 7.80388889 10.64166667
702 3 12.06055556 7.80388889 12.06055556
703 3 12.06055556 9.22277778 0.70944444
704 3 12.06055556 9.22277778 2.12833333
705 3 12.06055556 9.22277778 3.54722222
706 3 12.06055556 9.22277778 4.96611111
707 3 12.06055556 9.22277778 6.38500000
708 3 12.06055556 9.22277778 7.80388889
709 3 12.06055556 9.22277778 9.22277778
710 3 12.06055556 9.22277778 10.64166667
711 3 12.06055556 9.22277778 12.06055556
712 3 12.06055556 10.64166667 0.70944444
713 3 12.06055556 10.64166667 2.12833333
714 3 12.06055556 10.64166667 3.54722222
715 3 12.06055556 10.64166667 4.96611111
716 3 12.06055556 10.64166667 6.38500000
717 3 12.06055556 10.64166667 7.80388889
718 3 12.06055556 10.64166667 9.22277778
719 3 12.06055556 10.64166667 10.64166667
720 3 12.06055556 10.64166667 12.06055556
721 3 12.06055556 12.06055556 0.70944444
722 3 12.06055556 12.06055556 2.12833333
723 3 12.06055556 12.06055556 3.54722222
724 3 12.06055556 12.06055556 4.96611111
725 3 12.06055556 12.06055556 6.38500000
726 3 12.06055556 12.06055556 7.80388889
727 3 12.06055556 12.06055556 9.22277778
728 3 12.06055556 12.06055556 10.64166667
729 3 12.06055556 12.06055556 12.06055556
