LAMMPS Simulation Data
1331 atoms
1 atom types

0 41.98 xlo xhi 
0 41.98 ylo yhi 
0 41.98 zlo zhi 

Masses

1 1.0

Atoms

1 1 1.90818182 1.90818182 1.90818182
2 1 1.90818182 1.90818182 5.72454545
3 1 1.90818182 1.90818182 9.54090909
4 1 1.90818182 1.90818182 13.35727273
5 1 1.90818182 1.90818182 17.17363636
6 1 1.90818182 1.90818182 20.99000000
7 1 1.90818182 1.90818182 24.80636364
8 1 1.90818182 1.90818182 28.62272727
9 1 1.90818182 1.90818182 32.43909091
10 1 1.90818182 1.90818182 36.25545455
11 1 1.90818182 1.90818182 40.07181818
12 1 1.90818182 5.72454545 1.90818182
13 1 1.90818182 5.72454545 5.72454545
14 1 1.90818182 5.72454545 9.54090909
15 1 1.90818182 5.72454545 13.35727273
16 1 1.90818182 5.72454545 17.17363636
17 1 1.90818182 5.72454545 20.99000000
18 1 1.90818182 5.72454545 24.80636364
19 1 1.90818182 5.72454545 28.62272727
20 1 1.90818182 5.72454545 32.43909091
21 1 1.90818182 5.72454545 36.25545455
22 1 1.90818182 5.72454545 40.07181818
23 1 1.90818182 9.54090909 1.90818182
24 1 1.90818182 9.54090909 5.72454545
25 1 1.90818182 9.54090909 9.54090909
26 1 1.90818182 9.54090909 13.35727273
27 1 1.90818182 9.54090909 17.17363636
28 1 1.90818182 9.54090909 20.99000000
29 1 1.90818182 9.54090909 24.80636364
30 1 1.90818182 9.54090909 28.62272727
31 1 1.90818182 9.54090909 32.43909091
32 1 1.90818182 9.54090909 36.25545455
33 1 1.90818182 9.54090909 40.07181818
34 1 1.90818182 13.35727273 1.90818182
35 1 1.90818182 13.35727273 5.72454545
36 1 1.90818182 13.35727273 9.54090909
37 1 1.90818182 13.35727273 13.35727273
38 1 1.90818182 13.35727273 17.17363636
39 1 1.90818182 13.35727273 20.99000000
40 1 1.90818182 13.35727273 24.80636364
41 1 1.90818182 13.35727273 28.62272727
42 1 1.90818182 13.35727273 32.43909091
43 1 1.90818182 13.35727273 36.25545455
44 1 1.90818182 13.35727273 40.07181818
45 1 1.90818182 17.17363636 1.90818182
46 1 1.90818182 17.17363636 5.72454545
47 1 1.90818182 17.17363636 9.54090909
48 1 1.90818182 17.17363636 13.35727273
49 1 1.90818182 17.17363636 17.17363636
50 1 1.90818182 17.17363636 20.99000000
51 1 1.90818182 17.17363636 24.80636364
52 1 1.90818182 17.17363636 28.62272727
53 1 1.90818182 17.17363636 32.43909091
54 1 1.90818182 17.17363636 36.25545455
55 1 1.90818182 17.17363636 40.07181818
56 1 1.90818182 20.99000000 1.90818182
57 1 1.90818182 20.99000000 5.72454545
58 1 1.90818182 20.99000000 9.54090909
59 1 1.90818182 20.99000000 13.35727273
60 1 1.90818182 20.99000000 17.17363636
61 1 1.90818182 20.99000000 20.99000000
62 1 1.90818182 20.99000000 24.80636364
63 1 1.90818182 20.99000000 28.62272727
64 1 1.90818182 20.99000000 32.43909091
65 1 1.90818182 20.99000000 36.25545455
66 1 1.90818182 20.99000000 40.07181818
67 1 1.90818182 24.80636364 1.90818182
68 1 1.90818182 24.80636364 5.72454545
69 1 1.90818182 24.80636364 9.54090909
70 1 1.90818182 24.80636364 13.35727273
71 1 1.90818182 24.80636364 17.17363636
72 1 1.90818182 24.80636364 20.99000000
73 1 1.90818182 24.80636364 24.80636364
74 1 1.90818182 24.80636364 28.62272727
75 1 1.90818182 24.80636364 32.43909091
76 1 1.90818182 24.80636364 36.25545455
77 1 1.90818182 24.80636364 40.07181818
78 1 1.90818182 28.62272727 1.90818182
79 1 1.90818182 28.62272727 5.72454545
80 1 1.90818182 28.62272727 9.54090909
81 1 1.90818182 28.62272727 13.35727273
82 1 1.90818182 28.62272727 17.17363636
83 1 1.90818182 28.62272727 20.99000000
84 1 1.90818182 28.62272727 24.80636364
85 1 1.90818182 28.62272727 28.62272727
86 1 1.90818182 28.62272727 32.43909091
87 1 1.90818182 28.62272727 36.25545455
88 1 1.90818182 28.62272727 40.07181818
89 1 1.90818182 32.43909091 1.90818182
90 1 1.90818182 32.43909091 5.72454545
91 1 1.90818182 32.43909091 9.54090909
92 1 1.90818182 32.43909091 13.35727273
93 1 1.90818182 32.43909091 17.17363636
94 1 1.90818182 32.43909091 20.99000000
95 1 1.90818182 32.43909091 24.80636364
96 1 1.90818182 32.43909091 28.62272727
97 1 1.90818182 32.43909091 32.43909091
98 1 1.90818182 32.43909091 36.25545455
99 1 1.90818182 32.43909091 40.07181818
100 1 1.90818182 36.25545455 1.90818182
101 1 1.90818182 36.25545455 5.72454545
102 1 1.90818182 36.25545455 9.54090909
103 1 1.90818182 36.25545455 13.35727273
104 1 1.90818182 36.25545455 17.17363636
105 1 1.90818182 36.25545455 20.99000000
106 1 1.90818182 36.25545455 24.80636364
107 1 1.90818182 36.25545455 28.62272727
108 1 1.90818182 36.25545455 32.43909091
109 1 1.90818182 36.25545455 36.25545455
110 1 1.90818182 36.25545455 40.07181818
111 1 1.90818182 40.07181818 1.90818182
112 1 1.90818182 40.07181818 5.72454545
113 1 1.90818182 40.07181818 9.54090909
114 1 1.90818182 40.07181818 13.35727273
115 1 1.90818182 40.07181818 17.17363636
116 1 1.90818182 40.07181818 20.99000000
117 1 1.90818182 40.07181818 24.80636364
118 1 1.90818182 40.07181818 28.62272727
119 1 1.90818182 40.07181818 32.43909091
120 1 1.90818182 40.07181818 36.25545455
121 1 1.90818182 40.07181818 40.07181818
122 1 5.72454545 1.90818182 1.90818182
123 1 5.72454545 1.90818182 5.72454545
124 1 5.72454545 1.90818182 9.54090909
125 1 5.72454545 1.90818182 13.35727273
126 1 5.72454545 1.90818182 17.17363636
127 1 5.72454545 1.90818182 20.99000000
128 1 5.72454545 1.90818182 24.80636364
129 1 5.72454545 1.90818182 28.62272727
130 1 5.72454545 1.90818182 32.43909091
131 1 5.72454545 1.90818182 36.25545455
132 1 5.72454545 1.90818182 40.07181818
133 1 5.72454545 5.72454545 1.90818182
134 1 5.72454545 5.72454545 5.72454545
135 1 5.72454545 5.72454545 9.54090909
136 1 5.72454545 5.72454545 13.35727273
137 1 5.72454545 5.72454545 17.17363636
138 1 5.72454545 5.72454545 20.99000000
139 1 5.72454545 5.72454545 24.80636364
140 1 5.72454545 5.72454545 28.62272727
141 1 5.72454545 5.72454545 32.43909091
142 1 5.72454545 5.72454545 36.25545455
143 1 5.72454545 5.72454545 40.07181818
144 1 5.72454545 9.54090909 1.90818182
145 1 5.72454545 9.54090909 5.72454545
146 1 5.72454545 9.54090909 9.54090909
147 1 5.72454545 9.54090909 13.35727273
148 1 5.72454545 9.54090909 17.17363636
149 1 5.72454545 9.54090909 20.99000000
150 1 5.72454545 9.54090909 24.80636364
151 1 5.72454545 9.54090909 28.62272727
152 1 5.72454545 9.54090909 32.43909091
153 1 5.72454545 9.54090909 36.25545455
154 1 5.72454545 9.54090909 40.07181818
155 1 5.72454545 13.35727273 1.90818182
156 1 5.72454545 13.35727273 5.72454545
157 1 5.72454545 13.35727273 9.54090909
158 1 5.72454545 13.35727273 13.35727273
159 1 5.72454545 13.35727273 17.17363636
160 1 5.72454545 13.35727273 20.99000000
161 1 5.72454545 13.35727273 24.80636364
162 1 5.72454545 13.35727273 28.62272727
163 1 5.72454545 13.35727273 32.43909091
164 1 5.72454545 13.35727273 36.25545455
165 1 5.72454545 13.35727273 40.07181818
166 1 5.72454545 17.17363636 1.90818182
167 1 5.72454545 17.17363636 5.72454545
168 1 5.72454545 17.17363636 9.54090909
169 1 5.72454545 17.17363636 13.35727273
170 1 5.72454545 17.17363636 17.17363636
171 1 5.72454545 17.17363636 20.99000000
172 1 5.72454545 17.17363636 24.80636364
173 1 5.72454545 17.17363636 28.62272727
174 1 5.72454545 17.17363636 32.43909091
175 1 5.72454545 17.17363636 36.25545455
176 1 5.72454545 17.17363636 40.07181818
177 1 5.72454545 20.99000000 1.90818182
178 1 5.72454545 20.99000000 5.72454545
179 1 5.72454545 20.99000000 9.54090909
180 1 5.72454545 20.99000000 13.35727273
181 1 5.72454545 20.99000000 17.17363636
182 1 5.72454545 20.99000000 20.99000000
183 1 5.72454545 20.99000000 24.80636364
184 1 5.72454545 20.99000000 28.62272727
185 1 5.72454545 20.99000000 32.43909091
186 1 5.72454545 20.99000000 36.25545455
187 1 5.72454545 20.99000000 40.07181818
188 1 5.72454545 24.80636364 1.90818182
189 1 5.72454545 24.80636364 5.72454545
190 1 5.72454545 24.80636364 9.54090909
191 1 5.72454545 24.80636364 13.35727273
192 1 5.72454545 24.80636364 17.17363636
193 1 5.72454545 24.80636364 20.99000000
194 1 5.72454545 24.80636364 24.80636364
195 1 5.72454545 24.80636364 28.62272727
196 1 5.72454545 24.80636364 32.43909091
197 1 5.72454545 24.80636364 36.25545455
198 1 5.72454545 24.80636364 40.07181818
199 1 5.72454545 28.62272727 1.90818182
200 1 5.72454545 28.62272727 5.72454545
201 1 5.72454545 28.62272727 9.54090909
202 1 5.72454545 28.62272727 13.35727273
203 1 5.72454545 28.62272727 17.17363636
204 1 5.72454545 28.62272727 20.99000000
205 1 5.72454545 28.62272727 24.80636364
206 1 5.72454545 28.62272727 28.62272727
207 1 5.72454545 28.62272727 32.43909091
208 1 5.72454545 28.62272727 36.25545455
209 1 5.72454545 28.62272727 40.07181818
210 1 5.72454545 32.43909091 1.90818182
211 1 5.72454545 32.43909091 5.72454545
212 1 5.72454545 32.43909091 9.54090909
213 1 5.72454545 32.43909091 13.35727273
214 1 5.72454545 32.43909091 17.17363636
215 1 5.72454545 32.43909091 20.99000000
216 1 5.72454545 32.43909091 24.80636364
217 1 5.72454545 32.43909091 28.62272727
218 1 5.72454545 32.43909091 32.43909091
219 1 5.72454545 32.43909091 36.25545455
220 1 5.72454545 32.43909091 40.07181818
221 1 5.72454545 36.25545455 1.90818182
222 1 5.72454545 36.25545455 5.72454545
223 1 5.72454545 36.25545455 9.54090909
224 1 5.72454545 36.25545455 13.35727273
225 1 5.72454545 36.25545455 17.17363636
226 1 5.72454545 36.25545455 20.99000000
227 1 5.72454545 36.25545455 24.80636364
228 1 5.72454545 36.25545455 28.62272727
229 1 5.72454545 36.25545455 32.43909091
230 1 5.72454545 36.25545455 36.25545455
231 1 5.72454545 36.25545455 40.07181818
232 1 5.72454545 40.07181818 1.90818182
233 1 5.72454545 40.07181818 5.72454545
234 1 5.72454545 40.07181818 9.54090909
235 1 5.72454545 40.07181818 13.35727273
236 1 5.72454545 40.07181818 17.17363636
237 1 5.72454545 40.07181818 20.99000000
238 1 5.72454545 40.07181818 24.80636364
239 1 5.72454545 40.07181818 28.62272727
240 1 5.72454545 40.07181818 32.43909091
241 1 5.72454545 40.07181818 36.25545455
242 1 5.72454545 40.07181818 40.07181818
243 1 9.54090909 1.90818182 1.90818182
244 1 9.54090909 1.90818182 5.72454545
245 1 9.54090909 1.90818182 9.54090909
246 1 9.54090909 1.90818182 13.35727273
247 1 9.54090909 1.90818182 17.17363636
248 1 9.54090909 1.90818182 20.99000000
249 1 9.54090909 1.90818182 24.80636364
250 1 9.54090909 1.90818182 28.62272727
251 1 9.54090909 1.90818182 32.43909091
252 1 9.54090909 1.90818182 36.25545455
253 1 9.54090909 1.90818182 40.07181818
254 1 9.54090909 5.72454545 1.90818182
255 1 9.54090909 5.72454545 5.72454545
256 1 9.54090909 5.72454545 9.54090909
257 1 9.54090909 5.72454545 13.35727273
258 1 9.54090909 5.72454545 17.17363636
259 1 9.54090909 5.72454545 20.99000000
260 1 9.54090909 5.72454545 24.80636364
261 1 9.54090909 5.72454545 28.62272727
262 1 9.54090909 5.72454545 32.43909091
263 1 9.54090909 5.72454545 36.25545455
264 1 9.54090909 5.72454545 40.07181818
265 1 9.54090909 9.54090909 1.90818182
266 1 9.54090909 9.54090909 5.72454545
267 1 9.54090909 9.54090909 9.54090909
268 1 9.54090909 9.54090909 13.35727273
269 1 9.54090909 9.54090909 17.17363636
270 1 9.54090909 9.54090909 20.99000000
271 1 9.54090909 9.54090909 24.80636364
272 1 9.54090909 9.54090909 28.62272727
273 1 9.54090909 9.54090909 32.43909091
274 1 9.54090909 9.54090909 36.25545455
275 1 9.54090909 9.54090909 40.07181818
276 1 9.54090909 13.35727273 1.90818182
277 1 9.54090909 13.35727273 5.72454545
278 1 9.54090909 13.35727273 9.54090909
279 1 9.54090909 13.35727273 13.35727273
280 1 9.54090909 13.35727273 17.17363636
281 1 9.54090909 13.35727273 20.99000000
282 1 9.54090909 13.35727273 24.80636364
283 1 9.54090909 13.35727273 28.62272727
284 1 9.54090909 13.35727273 32.43909091
285 1 9.54090909 13.35727273 36.25545455
286 1 9.54090909 13.35727273 40.07181818
287 1 9.54090909 17.17363636 1.90818182
288 1 9.54090909 17.17363636 5.72454545
289 1 9.54090909 17.17363636 9.54090909
290 1 9.54090909 17.17363636 13.35727273
291 1 9.54090909 17.17363636 17.17363636
292 1 9.54090909 17.17363636 20.99000000
293 1 9.54090909 17.17363636 24.80636364
294 1 9.54090909 17.17363636 28.62272727
295 1 9.54090909 17.17363636 32.43909091
296 1 9.54090909 17.17363636 36.25545455
297 1 9.54090909 17.17363636 40.07181818
298 1 9.54090909 20.99000000 1.90818182
299 1 9.54090909 20.99000000 5.72454545
300 1 9.54090909 20.99000000 9.54090909
301 1 9.54090909 20.99000000 13.35727273
302 1 9.54090909 20.99000000 17.17363636
303 1 9.54090909 20.99000000 20.99000000
304 1 9.54090909 20.99000000 24.80636364
305 1 9.54090909 20.99000000 28.62272727
306 1 9.54090909 20.99000000 32.43909091
307 1 9.54090909 20.99000000 36.25545455
308 1 9.54090909 20.99000000 40.07181818
309 1 9.54090909 24.80636364 1.90818182
310 1 9.54090909 24.80636364 5.72454545
311 1 9.54090909 24.80636364 9.54090909
312 1 9.54090909 24.80636364 13.35727273
313 1 9.54090909 24.80636364 17.17363636
314 1 9.54090909 24.80636364 20.99000000
315 1 9.54090909 24.80636364 24.80636364
316 1 9.54090909 24.80636364 28.62272727
317 1 9.54090909 24.80636364 32.43909091
318 1 9.54090909 24.80636364 36.25545455
319 1 9.54090909 24.80636364 40.07181818
320 1 9.54090909 28.62272727 1.90818182
321 1 9.54090909 28.62272727 5.72454545
322 1 9.54090909 28.62272727 9.54090909
323 1 9.54090909 28.62272727 13.35727273
324 1 9.54090909 28.62272727 17.17363636
325 1 9.54090909 28.62272727 20.99000000
326 1 9.54090909 28.62272727 24.80636364
327 1 9.54090909 28.62272727 28.62272727
328 1 9.54090909 28.62272727 32.43909091
329 1 9.54090909 28.62272727 36.25545455
330 1 9.54090909 28.62272727 40.07181818
331 1 9.54090909 32.43909091 1.90818182
332 1 9.54090909 32.43909091 5.72454545
333 1 9.54090909 32.43909091 9.54090909
334 1 9.54090909 32.43909091 13.35727273
335 1 9.54090909 32.43909091 17.17363636
336 1 9.54090909 32.43909091 20.99000000
337 1 9.54090909 32.43909091 24.80636364
338 1 9.54090909 32.43909091 28.62272727
339 1 9.54090909 32.43909091 32.43909091
340 1 9.54090909 32.43909091 36.25545455
341 1 9.54090909 32.43909091 40.07181818
342 1 9.54090909 36.25545455 1.90818182
343 1 9.54090909 36.25545455 5.72454545
344 1 9.54090909 36.25545455 9.54090909
345 1 9.54090909 36.25545455 13.35727273
346 1 9.54090909 36.25545455 17.17363636
347 1 9.54090909 36.25545455 20.99000000
348 1 9.54090909 36.25545455 24.80636364
349 1 9.54090909 36.25545455 28.62272727
350 1 9.54090909 36.25545455 32.43909091
351 1 9.54090909 36.25545455 36.25545455
352 1 9.54090909 36.25545455 40.07181818
353 1 9.54090909 40.07181818 1.90818182
354 1 9.54090909 40.07181818 5.72454545
355 1 9.54090909 40.07181818 9.54090909
356 1 9.54090909 40.07181818 13.35727273
357 1 9.54090909 40.07181818 17.17363636
358 1 9.54090909 40.07181818 20.99000000
359 1 9.54090909 40.07181818 24.80636364
360 1 9.54090909 40.07181818 28.62272727
361 1 9.54090909 40.07181818 32.43909091
362 1 9.54090909 40.07181818 36.25545455
363 1 9.54090909 40.07181818 40.07181818
364 1 13.35727273 1.90818182 1.90818182
365 1 13.35727273 1.90818182 5.72454545
366 1 13.35727273 1.90818182 9.54090909
367 1 13.35727273 1.90818182 13.35727273
368 1 13.35727273 1.90818182 17.17363636
369 1 13.35727273 1.90818182 20.99000000
370 1 13.35727273 1.90818182 24.80636364
371 1 13.35727273 1.90818182 28.62272727
372 1 13.35727273 1.90818182 32.43909091
373 1 13.35727273 1.90818182 36.25545455
374 1 13.35727273 1.90818182 40.07181818
375 1 13.35727273 5.72454545 1.90818182
376 1 13.35727273 5.72454545 5.72454545
377 1 13.35727273 5.72454545 9.54090909
378 1 13.35727273 5.72454545 13.35727273
379 1 13.35727273 5.72454545 17.17363636
380 1 13.35727273 5.72454545 20.99000000
381 1 13.35727273 5.72454545 24.80636364
382 1 13.35727273 5.72454545 28.62272727
383 1 13.35727273 5.72454545 32.43909091
384 1 13.35727273 5.72454545 36.25545455
385 1 13.35727273 5.72454545 40.07181818
386 1 13.35727273 9.54090909 1.90818182
387 1 13.35727273 9.54090909 5.72454545
388 1 13.35727273 9.54090909 9.54090909
389 1 13.35727273 9.54090909 13.35727273
390 1 13.35727273 9.54090909 17.17363636
391 1 13.35727273 9.54090909 20.99000000
392 1 13.35727273 9.54090909 24.80636364
393 1 13.35727273 9.54090909 28.62272727
394 1 13.35727273 9.54090909 32.43909091
395 1 13.35727273 9.54090909 36.25545455
396 1 13.35727273 9.54090909 40.07181818
397 1 13.35727273 13.35727273 1.90818182
398 1 13.35727273 13.35727273 5.72454545
399 1 13.35727273 13.35727273 9.54090909
400 1 13.35727273 13.35727273 13.35727273
401 1 13.35727273 13.35727273 17.17363636
402 1 13.35727273 13.35727273 20.99000000
403 1 13.35727273 13.35727273 24.80636364
404 1 13.35727273 13.35727273 28.62272727
405 1 13.35727273 13.35727273 32.43909091
406 1 13.35727273 13.35727273 36.25545455
407 1 13.35727273 13.35727273 40.07181818
408 1 13.35727273 17.17363636 1.90818182
409 1 13.35727273 17.17363636 5.72454545
410 1 13.35727273 17.17363636 9.54090909
411 1 13.35727273 17.17363636 13.35727273
412 1 13.35727273 17.17363636 17.17363636
413 1 13.35727273 17.17363636 20.99000000
414 1 13.35727273 17.17363636 24.80636364
415 1 13.35727273 17.17363636 28.62272727
416 1 13.35727273 17.17363636 32.43909091
417 1 13.35727273 17.17363636 36.25545455
418 1 13.35727273 17.17363636 40.07181818
419 1 13.35727273 20.99000000 1.90818182
420 1 13.35727273 20.99000000 5.72454545
421 1 13.35727273 20.99000000 9.54090909
422 1 13.35727273 20.99000000 13.35727273
423 1 13.35727273 20.99000000 17.17363636
424 1 13.35727273 20.99000000 20.99000000
425 1 13.35727273 20.99000000 24.80636364
426 1 13.35727273 20.99000000 28.62272727
427 1 13.35727273 20.99000000 32.43909091
428 1 13.35727273 20.99000000 36.25545455
429 1 13.35727273 20.99000000 40.07181818
430 1 13.35727273 24.80636364 1.90818182
431 1 13.35727273 24.80636364 5.72454545
432 1 13.35727273 24.80636364 9.54090909
433 1 13.35727273 24.80636364 13.35727273
434 1 13.35727273 24.80636364 17.17363636
435 1 13.35727273 24.80636364 20.99000000
436 1 13.35727273 24.80636364 24.80636364
437 1 13.35727273 24.80636364 28.62272727
438 1 13.35727273 24.80636364 32.43909091
439 1 13.35727273 24.80636364 36.25545455
440 1 13.35727273 24.80636364 40.07181818
441 1 13.35727273 28.62272727 1.90818182
442 1 13.35727273 28.62272727 5.72454545
443 1 13.35727273 28.62272727 9.54090909
444 1 13.35727273 28.62272727 13.35727273
445 1 13.35727273 28.62272727 17.17363636
446 1 13.35727273 28.62272727 20.99000000
447 1 13.35727273 28.62272727 24.80636364
448 1 13.35727273 28.62272727 28.62272727
449 1 13.35727273 28.62272727 32.43909091
450 1 13.35727273 28.62272727 36.25545455
451 1 13.35727273 28.62272727 40.07181818
452 1 13.35727273 32.43909091 1.90818182
453 1 13.35727273 32.43909091 5.72454545
454 1 13.35727273 32.43909091 9.54090909
455 1 13.35727273 32.43909091 13.35727273
456 1 13.35727273 32.43909091 17.17363636
457 1 13.35727273 32.43909091 20.99000000
458 1 13.35727273 32.43909091 24.80636364
459 1 13.35727273 32.43909091 28.62272727
460 1 13.35727273 32.43909091 32.43909091
461 1 13.35727273 32.43909091 36.25545455
462 1 13.35727273 32.43909091 40.07181818
463 1 13.35727273 36.25545455 1.90818182
464 1 13.35727273 36.25545455 5.72454545
465 1 13.35727273 36.25545455 9.54090909
466 1 13.35727273 36.25545455 13.35727273
467 1 13.35727273 36.25545455 17.17363636
468 1 13.35727273 36.25545455 20.99000000
469 1 13.35727273 36.25545455 24.80636364
470 1 13.35727273 36.25545455 28.62272727
471 1 13.35727273 36.25545455 32.43909091
472 1 13.35727273 36.25545455 36.25545455
473 1 13.35727273 36.25545455 40.07181818
474 1 13.35727273 40.07181818 1.90818182
475 1 13.35727273 40.07181818 5.72454545
476 1 13.35727273 40.07181818 9.54090909
477 1 13.35727273 40.07181818 13.35727273
478 1 13.35727273 40.07181818 17.17363636
479 1 13.35727273 40.07181818 20.99000000
480 1 13.35727273 40.07181818 24.80636364
481 1 13.35727273 40.07181818 28.62272727
482 1 13.35727273 40.07181818 32.43909091
483 1 13.35727273 40.07181818 36.25545455
484 1 13.35727273 40.07181818 40.07181818
485 1 17.17363636 1.90818182 1.90818182
486 1 17.17363636 1.90818182 5.72454545
487 1 17.17363636 1.90818182 9.54090909
488 1 17.17363636 1.90818182 13.35727273
489 1 17.17363636 1.90818182 17.17363636
490 1 17.17363636 1.90818182 20.99000000
491 1 17.17363636 1.90818182 24.80636364
492 1 17.17363636 1.90818182 28.62272727
493 1 17.17363636 1.90818182 32.43909091
494 1 17.17363636 1.90818182 36.25545455
495 1 17.17363636 1.90818182 40.07181818
496 1 17.17363636 5.72454545 1.90818182
497 1 17.17363636 5.72454545 5.72454545
498 1 17.17363636 5.72454545 9.54090909
499 1 17.17363636 5.72454545 13.35727273
500 1 17.17363636 5.72454545 17.17363636
501 1 17.17363636 5.72454545 20.99000000
502 1 17.17363636 5.72454545 24.80636364
503 1 17.17363636 5.72454545 28.62272727
504 1 17.17363636 5.72454545 32.43909091
505 1 17.17363636 5.72454545 36.25545455
506 1 17.17363636 5.72454545 40.07181818
507 1 17.17363636 9.54090909 1.90818182
508 1 17.17363636 9.54090909 5.72454545
509 1 17.17363636 9.54090909 9.54090909
510 1 17.17363636 9.54090909 13.35727273
511 1 17.17363636 9.54090909 17.17363636
512 1 17.17363636 9.54090909 20.99000000
513 1 17.17363636 9.54090909 24.80636364
514 1 17.17363636 9.54090909 28.62272727
515 1 17.17363636 9.54090909 32.43909091
516 1 17.17363636 9.54090909 36.25545455
517 1 17.17363636 9.54090909 40.07181818
518 1 17.17363636 13.35727273 1.90818182
519 1 17.17363636 13.35727273 5.72454545
520 1 17.17363636 13.35727273 9.54090909
521 1 17.17363636 13.35727273 13.35727273
522 1 17.17363636 13.35727273 17.17363636
523 1 17.17363636 13.35727273 20.99000000
524 1 17.17363636 13.35727273 24.80636364
525 1 17.17363636 13.35727273 28.62272727
526 1 17.17363636 13.35727273 32.43909091
527 1 17.17363636 13.35727273 36.25545455
528 1 17.17363636 13.35727273 40.07181818
529 1 17.17363636 17.17363636 1.90818182
530 1 17.17363636 17.17363636 5.72454545
531 1 17.17363636 17.17363636 9.54090909
532 1 17.17363636 17.17363636 13.35727273
533 1 17.17363636 17.17363636 17.17363636
534 1 17.17363636 17.17363636 20.99000000
535 1 17.17363636 17.17363636 24.80636364
536 1 17.17363636 17.17363636 28.62272727
537 1 17.17363636 17.17363636 32.43909091
538 1 17.17363636 17.17363636 36.25545455
539 1 17.17363636 17.17363636 40.07181818
540 1 17.17363636 20.99000000 1.90818182
541 1 17.17363636 20.99000000 5.72454545
542 1 17.17363636 20.99000000 9.54090909
543 1 17.17363636 20.99000000 13.35727273
544 1 17.17363636 20.99000000 17.17363636
545 1 17.17363636 20.99000000 20.99000000
546 1 17.17363636 20.99000000 24.80636364
547 1 17.17363636 20.99000000 28.62272727
548 1 17.17363636 20.99000000 32.43909091
549 1 17.17363636 20.99000000 36.25545455
550 1 17.17363636 20.99000000 40.07181818
551 1 17.17363636 24.80636364 1.90818182
552 1 17.17363636 24.80636364 5.72454545
553 1 17.17363636 24.80636364 9.54090909
554 1 17.17363636 24.80636364 13.35727273
555 1 17.17363636 24.80636364 17.17363636
556 1 17.17363636 24.80636364 20.99000000
557 1 17.17363636 24.80636364 24.80636364
558 1 17.17363636 24.80636364 28.62272727
559 1 17.17363636 24.80636364 32.43909091
560 1 17.17363636 24.80636364 36.25545455
561 1 17.17363636 24.80636364 40.07181818
562 1 17.17363636 28.62272727 1.90818182
563 1 17.17363636 28.62272727 5.72454545
564 1 17.17363636 28.62272727 9.54090909
565 1 17.17363636 28.62272727 13.35727273
566 1 17.17363636 28.62272727 17.17363636
567 1 17.17363636 28.62272727 20.99000000
568 1 17.17363636 28.62272727 24.80636364
569 1 17.17363636 28.62272727 28.62272727
570 1 17.17363636 28.62272727 32.43909091
571 1 17.17363636 28.62272727 36.25545455
572 1 17.17363636 28.62272727 40.07181818
573 1 17.17363636 32.43909091 1.90818182
574 1 17.17363636 32.43909091 5.72454545
575 1 17.17363636 32.43909091 9.54090909
576 1 17.17363636 32.43909091 13.35727273
577 1 17.17363636 32.43909091 17.17363636
578 1 17.17363636 32.43909091 20.99000000
579 1 17.17363636 32.43909091 24.80636364
580 1 17.17363636 32.43909091 28.62272727
581 1 17.17363636 32.43909091 32.43909091
582 1 17.17363636 32.43909091 36.25545455
583 1 17.17363636 32.43909091 40.07181818
584 1 17.17363636 36.25545455 1.90818182
585 1 17.17363636 36.25545455 5.72454545
586 1 17.17363636 36.25545455 9.54090909
587 1 17.17363636 36.25545455 13.35727273
588 1 17.17363636 36.25545455 17.17363636
589 1 17.17363636 36.25545455 20.99000000
590 1 17.17363636 36.25545455 24.80636364
591 1 17.17363636 36.25545455 28.62272727
592 1 17.17363636 36.25545455 32.43909091
593 1 17.17363636 36.25545455 36.25545455
594 1 17.17363636 36.25545455 40.07181818
595 1 17.17363636 40.07181818 1.90818182
596 1 17.17363636 40.07181818 5.72454545
597 1 17.17363636 40.07181818 9.54090909
598 1 17.17363636 40.07181818 13.35727273
599 1 17.17363636 40.07181818 17.17363636
600 1 17.17363636 40.07181818 20.99000000
601 1 17.17363636 40.07181818 24.80636364
602 1 17.17363636 40.07181818 28.62272727
603 1 17.17363636 40.07181818 32.43909091
604 1 17.17363636 40.07181818 36.25545455
605 1 17.17363636 40.07181818 40.07181818
606 1 20.99000000 1.90818182 1.90818182
607 1 20.99000000 1.90818182 5.72454545
608 1 20.99000000 1.90818182 9.54090909
609 1 20.99000000 1.90818182 13.35727273
610 1 20.99000000 1.90818182 17.17363636
611 1 20.99000000 1.90818182 20.99000000
612 1 20.99000000 1.90818182 24.80636364
613 1 20.99000000 1.90818182 28.62272727
614 1 20.99000000 1.90818182 32.43909091
615 1 20.99000000 1.90818182 36.25545455
616 1 20.99000000 1.90818182 40.07181818
617 1 20.99000000 5.72454545 1.90818182
618 1 20.99000000 5.72454545 5.72454545
619 1 20.99000000 5.72454545 9.54090909
620 1 20.99000000 5.72454545 13.35727273
621 1 20.99000000 5.72454545 17.17363636
622 1 20.99000000 5.72454545 20.99000000
623 1 20.99000000 5.72454545 24.80636364
624 1 20.99000000 5.72454545 28.62272727
625 1 20.99000000 5.72454545 32.43909091
626 1 20.99000000 5.72454545 36.25545455
627 1 20.99000000 5.72454545 40.07181818
628 1 20.99000000 9.54090909 1.90818182
629 1 20.99000000 9.54090909 5.72454545
630 1 20.99000000 9.54090909 9.54090909
631 1 20.99000000 9.54090909 13.35727273
632 1 20.99000000 9.54090909 17.17363636
633 1 20.99000000 9.54090909 20.99000000
634 1 20.99000000 9.54090909 24.80636364
635 1 20.99000000 9.54090909 28.62272727
636 1 20.99000000 9.54090909 32.43909091
637 1 20.99000000 9.54090909 36.25545455
638 1 20.99000000 9.54090909 40.07181818
639 1 20.99000000 13.35727273 1.90818182
640 1 20.99000000 13.35727273 5.72454545
641 1 20.99000000 13.35727273 9.54090909
642 1 20.99000000 13.35727273 13.35727273
643 1 20.99000000 13.35727273 17.17363636
644 1 20.99000000 13.35727273 20.99000000
645 1 20.99000000 13.35727273 24.80636364
646 1 20.99000000 13.35727273 28.62272727
647 1 20.99000000 13.35727273 32.43909091
648 1 20.99000000 13.35727273 36.25545455
649 1 20.99000000 13.35727273 40.07181818
650 1 20.99000000 17.17363636 1.90818182
651 1 20.99000000 17.17363636 5.72454545
652 1 20.99000000 17.17363636 9.54090909
653 1 20.99000000 17.17363636 13.35727273
654 1 20.99000000 17.17363636 17.17363636
655 1 20.99000000 17.17363636 20.99000000
656 1 20.99000000 17.17363636 24.80636364
657 1 20.99000000 17.17363636 28.62272727
658 1 20.99000000 17.17363636 32.43909091
659 1 20.99000000 17.17363636 36.25545455
660 1 20.99000000 17.17363636 40.07181818
661 1 20.99000000 20.99000000 1.90818182
662 1 20.99000000 20.99000000 5.72454545
663 1 20.99000000 20.99000000 9.54090909
664 1 20.99000000 20.99000000 13.35727273
665 1 20.99000000 20.99000000 17.17363636
666 1 20.99000000 20.99000000 20.99000000
667 1 20.99000000 20.99000000 24.80636364
668 1 20.99000000 20.99000000 28.62272727
669 1 20.99000000 20.99000000 32.43909091
670 1 20.99000000 20.99000000 36.25545455
671 1 20.99000000 20.99000000 40.07181818
672 1 20.99000000 24.80636364 1.90818182
673 1 20.99000000 24.80636364 5.72454545
674 1 20.99000000 24.80636364 9.54090909
675 1 20.99000000 24.80636364 13.35727273
676 1 20.99000000 24.80636364 17.17363636
677 1 20.99000000 24.80636364 20.99000000
678 1 20.99000000 24.80636364 24.80636364
679 1 20.99000000 24.80636364 28.62272727
680 1 20.99000000 24.80636364 32.43909091
681 1 20.99000000 24.80636364 36.25545455
682 1 20.99000000 24.80636364 40.07181818
683 1 20.99000000 28.62272727 1.90818182
684 1 20.99000000 28.62272727 5.72454545
685 1 20.99000000 28.62272727 9.54090909
686 1 20.99000000 28.62272727 13.35727273
687 1 20.99000000 28.62272727 17.17363636
688 1 20.99000000 28.62272727 20.99000000
689 1 20.99000000 28.62272727 24.80636364
690 1 20.99000000 28.62272727 28.62272727
691 1 20.99000000 28.62272727 32.43909091
692 1 20.99000000 28.62272727 36.25545455
693 1 20.99000000 28.62272727 40.07181818
694 1 20.99000000 32.43909091 1.90818182
695 1 20.99000000 32.43909091 5.72454545
696 1 20.99000000 32.43909091 9.54090909
697 1 20.99000000 32.43909091 13.35727273
698 1 20.99000000 32.43909091 17.17363636
699 1 20.99000000 32.43909091 20.99000000
700 1 20.99000000 32.43909091 24.80636364
701 1 20.99000000 32.43909091 28.62272727
702 1 20.99000000 32.43909091 32.43909091
703 1 20.99000000 32.43909091 36.25545455
704 1 20.99000000 32.43909091 40.07181818
705 1 20.99000000 36.25545455 1.90818182
706 1 20.99000000 36.25545455 5.72454545
707 1 20.99000000 36.25545455 9.54090909
708 1 20.99000000 36.25545455 13.35727273
709 1 20.99000000 36.25545455 17.17363636
710 1 20.99000000 36.25545455 20.99000000
711 1 20.99000000 36.25545455 24.80636364
712 1 20.99000000 36.25545455 28.62272727
713 1 20.99000000 36.25545455 32.43909091
714 1 20.99000000 36.25545455 36.25545455
715 1 20.99000000 36.25545455 40.07181818
716 1 20.99000000 40.07181818 1.90818182
717 1 20.99000000 40.07181818 5.72454545
718 1 20.99000000 40.07181818 9.54090909
719 1 20.99000000 40.07181818 13.35727273
720 1 20.99000000 40.07181818 17.17363636
721 1 20.99000000 40.07181818 20.99000000
722 1 20.99000000 40.07181818 24.80636364
723 1 20.99000000 40.07181818 28.62272727
724 1 20.99000000 40.07181818 32.43909091
725 1 20.99000000 40.07181818 36.25545455
726 1 20.99000000 40.07181818 40.07181818
727 1 24.80636364 1.90818182 1.90818182
728 1 24.80636364 1.90818182 5.72454545
729 1 24.80636364 1.90818182 9.54090909
730 1 24.80636364 1.90818182 13.35727273
731 1 24.80636364 1.90818182 17.17363636
732 1 24.80636364 1.90818182 20.99000000