LAMMPS Simulation Data
512 atoms
3 atom types

0 11.35 xlo xhi 
0 11.35 ylo yhi 
0 11.35 zlo zhi 

Masses

1 1.0
2 1.0
3 1.0

Atoms

1 1 0.70937500 0.70937500 0.70937500
2 1 0.70937500 0.70937500 2.12812500
3 1 0.70937500 0.70937500 3.54687500
4 1 0.70937500 0.70937500 4.96562500
5 1 0.70937500 0.70937500 6.38437500
6 1 0.70937500 0.70937500 7.80312500
7 1 0.70937500 0.70937500 9.22187500
8 1 0.70937500 0.70937500 10.64062500
9 1 0.70937500 2.12812500 0.70937500
10 1 0.70937500 2.12812500 2.12812500
11 1 0.70937500 2.12812500 3.54687500
12 1 0.70937500 2.12812500 4.96562500
13 1 0.70937500 2.12812500 6.38437500
14 1 0.70937500 2.12812500 7.80312500
15 1 0.70937500 2.12812500 9.22187500
16 1 0.70937500 2.12812500 10.64062500
17 1 0.70937500 3.54687500 0.70937500
18 1 0.70937500 3.54687500 2.12812500
19 1 0.70937500 3.54687500 3.54687500
20 1 0.70937500 3.54687500 4.96562500
21 1 0.70937500 3.54687500 6.38437500
22 1 0.70937500 3.54687500 7.80312500
23 1 0.70937500 3.54687500 9.22187500
24 1 0.70937500 3.54687500 10.64062500
25 1 0.70937500 4.96562500 0.70937500
26 1 0.70937500 4.96562500 2.12812500
27 1 0.70937500 4.96562500 3.54687500
28 1 0.70937500 4.96562500 4.96562500
29 1 0.70937500 4.96562500 6.38437500
30 1 0.70937500 4.96562500 7.80312500
31 1 0.70937500 4.96562500 9.22187500
32 1 0.70937500 4.96562500 10.64062500
33 1 0.70937500 6.38437500 0.70937500
34 1 0.70937500 6.38437500 2.12812500
35 1 0.70937500 6.38437500 3.54687500
36 1 0.70937500 6.38437500 4.96562500
37 1 0.70937500 6.38437500 6.38437500
38 1 0.70937500 6.38437500 7.80312500
39 1 0.70937500 6.38437500 9.22187500
40 1 0.70937500 6.38437500 10.64062500
41 1 0.70937500 7.80312500 0.70937500
42 1 0.70937500 7.80312500 2.12812500
43 1 0.70937500 7.80312500 3.54687500
44 1 0.70937500 7.80312500 4.96562500
45 1 0.70937500 7.80312500 6.38437500
46 1 0.70937500 7.80312500 7.80312500
47 1 0.70937500 7.80312500 9.22187500
48 1 0.70937500 7.80312500 10.64062500
49 1 0.70937500 9.22187500 0.70937500
50 1 0.70937500 9.22187500 2.12812500
51 1 0.70937500 9.22187500 3.54687500
52 1 0.70937500 9.22187500 4.96562500
53 1 0.70937500 9.22187500 6.38437500
54 1 0.70937500 9.22187500 7.80312500
55 1 0.70937500 9.22187500 9.22187500
56 1 0.70937500 9.22187500 10.64062500
57 1 0.70937500 10.64062500 0.70937500
58 1 0.70937500 10.64062500 2.12812500
59 1 0.70937500 10.64062500 3.54687500
60 1 0.70937500 10.64062500 4.96562500
61 1 0.70937500 10.64062500 6.38437500
62 1 0.70937500 10.64062500 7.80312500
63 1 0.70937500 10.64062500 9.22187500
64 1 0.70937500 10.64062500 10.64062500
65 1 2.12812500 0.70937500 0.70937500
66 1 2.12812500 0.70937500 2.12812500
67 1 2.12812500 0.70937500 3.54687500
68 1 2.12812500 0.70937500 4.96562500
69 1 2.12812500 0.70937500 6.38437500
70 1 2.12812500 0.70937500 7.80312500
71 1 2.12812500 0.70937500 9.22187500
72 1 2.12812500 0.70937500 10.64062500
73 1 2.12812500 2.12812500 0.70937500
74 1 2.12812500 2.12812500 2.12812500
75 1 2.12812500 2.12812500 3.54687500
76 1 2.12812500 2.12812500 4.96562500
77 1 2.12812500 2.12812500 6.38437500
78 1 2.12812500 2.12812500 7.80312500
79 1 2.12812500 2.12812500 9.22187500
80 1 2.12812500 2.12812500 10.64062500
81 1 2.12812500 3.54687500 0.70937500
82 1 2.12812500 3.54687500 2.12812500
83 1 2.12812500 3.54687500 3.54687500
84 1 2.12812500 3.54687500 4.96562500
85 1 2.12812500 3.54687500 6.38437500
86 1 2.12812500 3.54687500 7.80312500
87 1 2.12812500 3.54687500 9.22187500
88 1 2.12812500 3.54687500 10.64062500
89 1 2.12812500 4.96562500 0.70937500
90 1 2.12812500 4.96562500 2.12812500
91 1 2.12812500 4.96562500 3.54687500
92 1 2.12812500 4.96562500 4.96562500
93 1 2.12812500 4.96562500 6.38437500
94 1 2.12812500 4.96562500 7.80312500
95 1 2.12812500 4.96562500 9.22187500
96 1 2.12812500 4.96562500 10.64062500
97 1 2.12812500 6.38437500 0.70937500
98 1 2.12812500 6.38437500 2.12812500
99 1 2.12812500 6.38437500 3.54687500
100 1 2.12812500 6.38437500 4.96562500
101 1 2.12812500 6.38437500 6.38437500
102 1 2.12812500 6.38437500 7.80312500
103 1 2.12812500 6.38437500 9.22187500
104 1 2.12812500 6.38437500 10.64062500
105 1 2.12812500 7.80312500 0.70937500
106 1 2.12812500 7.80312500 2.12812500
107 1 2.12812500 7.80312500 3.54687500
108 1 2.12812500 7.80312500 4.96562500
109 1 2.12812500 7.80312500 6.38437500
110 1 2.12812500 7.80312500 7.80312500
111 1 2.12812500 7.80312500 9.22187500
112 1 2.12812500 7.80312500 10.64062500
113 1 2.12812500 9.22187500 0.70937500
114 1 2.12812500 9.22187500 2.12812500
115 1 2.12812500 9.22187500 3.54687500
116 1 2.12812500 9.22187500 4.96562500
117 1 2.12812500 9.22187500 6.38437500
118 1 2.12812500 9.22187500 7.80312500
119 1 2.12812500 9.22187500 9.22187500
120 1 2.12812500 9.22187500 10.64062500
121 1 2.12812500 10.64062500 0.70937500
122 1 2.12812500 10.64062500 2.12812500
123 1 2.12812500 10.64062500 3.54687500
124 1 2.12812500 10.64062500 4.96562500
125 1 2.12812500 10.64062500 6.38437500
126 1 2.12812500 10.64062500 7.80312500
127 1 2.12812500 10.64062500 9.22187500
128 1 2.12812500 10.64062500 10.64062500
129 1 3.54687500 0.70937500 0.70937500
130 1 3.54687500 0.70937500 2.12812500
131 1 3.54687500 0.70937500 3.54687500
132 1 3.54687500 0.70937500 4.96562500
133 1 3.54687500 0.70937500 6.38437500
134 1 3.54687500 0.70937500 7.80312500
135 1 3.54687500 0.70937500 9.22187500
136 1 3.54687500 0.70937500 10.64062500
137 1 3.54687500 2.12812500 0.70937500
138 1 3.54687500 2.12812500 2.12812500
139 1 3.54687500 2.12812500 3.54687500
140 1 3.54687500 2.12812500 4.96562500
141 1 3.54687500 2.12812500 6.38437500
142 1 3.54687500 2.12812500 7.80312500
143 1 3.54687500 2.12812500 9.22187500
144 1 3.54687500 2.12812500 10.64062500
145 1 3.54687500 3.54687500 0.70937500
146 1 3.54687500 3.54687500 2.12812500
147 1 3.54687500 3.54687500 3.54687500
148 1 3.54687500 3.54687500 4.96562500
149 1 3.54687500 3.54687500 6.38437500
150 1 3.54687500 3.54687500 7.80312500
151 1 3.54687500 3.54687500 9.22187500
152 1 3.54687500 3.54687500 10.64062500
153 1 3.54687500 4.96562500 0.70937500
154 1 3.54687500 4.96562500 2.12812500
155 1 3.54687500 4.96562500 3.54687500
156 1 3.54687500 4.96562500 4.96562500
157 1 3.54687500 4.96562500 6.38437500
158 1 3.54687500 4.96562500 7.80312500
159 1 3.54687500 4.96562500 9.22187500
160 1 3.54687500 4.96562500 10.64062500
161 1 3.54687500 6.38437500 0.70937500
162 1 3.54687500 6.38437500 2.12812500
163 1 3.54687500 6.38437500 3.54687500
164 1 3.54687500 6.38437500 4.96562500
165 1 3.54687500 6.38437500 6.38437500
166 1 3.54687500 6.38437500 7.80312500
167 1 3.54687500 6.38437500 9.22187500
168 1 3.54687500 6.38437500 10.64062500
169 1 3.54687500 7.80312500 0.70937500
170 1 3.54687500 7.80312500 2.12812500
171 1 3.54687500 7.80312500 3.54687500
172 1 3.54687500 7.80312500 4.96562500
173 1 3.54687500 7.80312500 6.38437500
174 1 3.54687500 7.80312500 7.80312500
175 1 3.54687500 7.80312500 9.22187500
176 1 3.54687500 7.80312500 10.64062500
177 1 3.54687500 9.22187500 0.70937500
178 1 3.54687500 9.22187500 2.12812500
179 1 3.54687500 9.22187500 3.54687500
180 1 3.54687500 9.22187500 4.96562500
181 1 3.54687500 9.22187500 6.38437500
182 1 3.54687500 9.22187500 7.80312500
183 1 3.54687500 9.22187500 9.22187500
184 1 3.54687500 9.22187500 10.64062500
185 1 3.54687500 10.64062500 0.70937500
186 1 3.54687500 10.64062500 2.12812500
187 1 3.54687500 10.64062500 3.54687500
188 1 3.54687500 10.64062500 4.96562500
189 1 3.54687500 10.64062500 6.38437500
190 1 3.54687500 10.64062500 7.80312500
191 1 3.54687500 10.64062500 9.22187500
192 1 3.54687500 10.64062500 10.64062500
193 1 4.96562500 0.70937500 0.70937500
194 1 4.96562500 0.70937500 2.12812500
195 1 4.96562500 0.70937500 3.54687500
196 1 4.96562500 0.70937500 4.96562500
197 1 4.96562500 0.70937500 6.38437500
198 1 4.96562500 0.70937500 7.80312500
199 1 4.96562500 0.70937500 9.22187500
200 1 4.96562500 0.70937500 10.64062500
201 1 4.96562500 2.12812500 0.70937500
202 1 4.96562500 2.12812500 2.12812500
203 1 4.96562500 2.12812500 3.54687500
204 1 4.96562500 2.12812500 4.96562500
205 1 4.96562500 2.12812500 6.38437500
206 1 4.96562500 2.12812500 7.80312500
207 1 4.96562500 2.12812500 9.22187500
208 1 4.96562500 2.12812500 10.64062500
209 1 4.96562500 3.54687500 0.70937500
210 1 4.96562500 3.54687500 2.12812500
211 1 4.96562500 3.54687500 3.54687500
212 1 4.96562500 3.54687500 4.96562500
213 1 4.96562500 3.54687500 6.38437500
214 1 4.96562500 3.54687500 7.80312500
215 1 4.96562500 3.54687500 9.22187500
216 1 4.96562500 3.54687500 10.64062500
217 1 4.96562500 4.96562500 0.70937500
218 1 4.96562500 4.96562500 2.12812500
219 1 4.96562500 4.96562500 3.54687500
220 1 4.96562500 4.96562500 4.96562500
221 1 4.96562500 4.96562500 6.38437500
222 1 4.96562500 4.96562500 7.80312500
223 1 4.96562500 4.96562500 9.22187500
224 1 4.96562500 4.96562500 10.64062500
225 1 4.96562500 6.38437500 0.70937500
226 1 4.96562500 6.38437500 2.12812500
227 1 4.96562500 6.38437500 3.54687500
228 1 4.96562500 6.38437500 4.96562500
229 1 4.96562500 6.38437500 6.38437500
230 1 4.96562500 6.38437500 7.80312500
231 1 4.96562500 6.38437500 9.22187500
232 1 4.96562500 6.38437500 10.64062500
233 1 4.96562500 7.80312500 0.70937500
234 1 4.96562500 7.80312500 2.12812500
235 1 4.96562500 7.80312500 3.54687500
236 1 4.96562500 7.80312500 4.96562500
237 1 4.96562500 7.80312500 6.38437500
238 1 4.96562500 7.80312500 7.80312500
239 1 4.96562500 7.80312500 9.22187500
240 1 4.96562500 7.80312500 10.64062500
241 1 4.96562500 9.22187500 0.70937500
242 1 4.96562500 9.22187500 2.12812500
243 1 4.96562500 9.22187500 3.54687500
244 1 4.96562500 9.22187500 4.96562500
245 1 4.96562500 9.22187500 6.38437500
246 1 4.96562500 9.22187500 7.80312500
247 1 4.96562500 9.22187500 9.22187500
248 1 4.96562500 9.22187500 10.64062500
249 1 4.96562500 10.64062500 0.70937500
250 1 4.96562500 10.64062500 2.12812500
251 1 4.96562500 10.64062500 3.54687500
252 1 4.96562500 10.64062500 4.96562500
253 1 4.96562500 10.64062500 6.38437500
254 1 4.96562500 10.64062500 7.80312500
255 1 4.96562500 10.64062500 9.22187500
256 1 4.96562500 10.64062500 10.64062500
257 1 6.38437500 0.70937500 0.70937500
258 1 6.38437500 0.70937500 2.12812500
259 1 6.38437500 0.70937500 3.54687500
260 1 6.38437500 0.70937500 4.96562500
261 1 6.38437500 0.70937500 6.38437500
262 1 6.38437500 0.70937500 7.80312500
263 1 6.38437500 0.70937500 9.22187500
264 1 6.38437500 0.70937500 10.64062500
265 1 6.38437500 2.12812500 0.70937500
266 1 6.38437500 2.12812500 2.12812500
267 1 6.38437500 2.12812500 3.54687500
268 1 6.38437500 2.12812500 4.96562500
269 1 6.38437500 2.12812500 6.38437500
270 1 6.38437500 2.12812500 7.80312500
271 1 6.38437500 2.12812500 9.22187500
272 1 6.38437500 2.12812500 10.64062500
273 1 6.38437500 3.54687500 0.70937500
274 1 6.38437500 3.54687500 2.12812500
275 1 6.38437500 3.54687500 3.54687500
276 1 6.38437500 3.54687500 4.96562500
277 1 6.38437500 3.54687500 6.38437500
278 1 6.38437500 3.54687500 7.80312500
279 1 6.38437500 3.54687500 9.22187500
280 1 6.38437500 3.54687500 10.64062500
281 1 6.38437500 4.96562500 0.70937500
282 1 6.38437500 4.96562500 2.12812500
283 1 6.38437500 4.96562500 3.54687500
284 1 6.38437500 4.96562500 4.96562500
285 1 6.38437500 4.96562500 6.38437500
286 1 6.38437500 4.96562500 7.80312500
287 1 6.38437500 4.96562500 9.22187500
288 1 6.38437500 4.96562500 10.64062500
289 1 6.38437500 6.38437500 0.70937500
290 1 6.38437500 6.38437500 2.12812500
291 1 6.38437500 6.38437500 3.54687500
292 1 6.38437500 6.38437500 4.96562500
293 1 6.38437500 6.38437500 6.38437500
294 1 6.38437500 6.38437500 7.80312500
295 1 6.38437500 6.38437500 9.22187500
296 1 6.38437500 6.38437500 10.64062500
297 1 6.38437500 7.80312500 0.70937500
298 1 6.38437500 7.80312500 2.12812500
299 1 6.38437500 7.80312500 3.54687500
300 1 6.38437500 7.80312500 4.96562500
301 1 6.38437500 7.80312500 6.38437500
302 1 6.38437500 7.80312500 7.80312500
303 1 6.38437500 7.80312500 9.22187500
304 1 6.38437500 7.80312500 10.64062500
305 1 6.38437500 9.22187500 0.70937500
306 1 6.38437500 9.22187500 2.12812500
307 1 6.38437500 9.22187500 3.54687500
308 1 6.38437500 9.22187500 4.96562500
309 1 6.38437500 9.22187500 6.38437500
310 1 6.38437500 9.22187500 7.80312500
311 1 6.38437500 9.22187500 9.22187500
312 1 6.38437500 9.22187500 10.64062500
313 1 6.38437500 10.64062500 0.70937500
314 1 6.38437500 10.64062500 2.12812500
315 1 6.38437500 10.64062500 3.54687500
316 1 6.38437500 10.64062500 4.96562500
317 1 6.38437500 10.64062500 6.38437500
318 1 6.38437500 10.64062500 7.80312500
319 1 6.38437500 10.64062500 9.22187500
320 1 6.38437500 10.64062500 10.64062500
321 1 7.80312500 0.70937500 0.70937500
322 1 7.80312500 0.70937500 2.12812500
323 1 7.80312500 0.70937500 3.54687500
324 1 7.80312500 0.70937500 4.96562500
325 1 7.80312500 0.70937500 6.38437500
326 1 7.80312500 0.70937500 7.80312500
327 1 7.80312500 0.70937500 9.22187500
328 1 7.80312500 0.70937500 10.64062500
329 1 7.80312500 2.12812500 0.70937500
330 1 7.80312500 2.12812500 2.12812500
331 1 7.80312500 2.12812500 3.54687500
332 1 7.80312500 2.12812500 4.96562500
333 1 7.80312500 2.12812500 6.38437500
334 1 7.80312500 2.12812500 7.80312500
335 1 7.80312500 2.12812500 9.22187500
336 1 7.80312500 2.12812500 10.64062500
337 1 7.80312500 3.54687500 0.70937500
338 1 7.80312500 3.54687500 2.12812500
339 1 7.80312500 3.54687500 3.54687500
340 1 7.80312500 3.54687500 4.96562500
341 1 7.80312500 3.54687500 6.38437500
342 1 7.80312500 3.54687500 7.80312500
343 1 7.80312500 3.54687500 9.22187500
344 1 7.80312500 3.54687500 10.64062500
345 1 7.80312500 4.96562500 0.70937500
346 1 7.80312500 4.96562500 2.12812500
347 1 7.80312500 4.96562500 3.54687500
348 1 7.80312500 4.96562500 4.96562500
349 1 7.80312500 4.96562500 6.38437500
350 1 7.80312500 4.96562500 7.80312500
351 1 7.80312500 4.96562500 9.22187500
352 1 7.80312500 4.96562500 10.64062500
353 1 7.80312500 6.38437500 0.70937500
354 1 7.80312500 6.38437500 2.12812500
355 1 7.80312500 6.38437500 3.54687500
356 1 7.80312500 6.38437500 4.96562500
357 1 7.80312500 6.38437500 6.38437500
358 1 7.80312500 6.38437500 7.80312500
359 1 7.80312500 6.38437500 9.22187500
360 1 7.80312500 6.38437500 10.64062500
361 1 7.80312500 7.80312500 0.70937500
362 1 7.80312500 7.80312500 2.12812500
363 1 7.80312500 7.80312500 3.54687500
364 1 7.80312500 7.80312500 4.96562500
365 1 7.80312500 7.80312500 6.38437500
366 1 7.80312500 7.80312500 7.80312500
367 1 7.80312500 7.80312500 9.22187500
368 1 7.80312500 7.80312500 10.64062500
369 1 7.80312500 9.22187500 0.70937500
370 1 7.80312500 9.22187500 2.12812500
371 1 7.80312500 9.22187500 3.54687500
372 1 7.80312500 9.22187500 4.96562500
373 1 7.80312500 9.22187500 6.38437500
374 1 7.80312500 9.22187500 7.80312500
375 1 7.80312500 9.22187500 9.22187500
376 1 7.80312500 9.22187500 10.64062500
377 1 7.80312500 10.64062500 0.70937500
378 1 7.80312500 10.64062500 2.12812500
379 1 7.80312500 10.64062500 3.54687500
380 1 7.80312500 10.64062500 4.96562500
381 1 7.80312500 10.64062500 6.38437500
382 1 7.80312500 10.64062500 7.80312500
383 1 7.80312500 10.64062500 9.22187500
384 1 7.80312500 10.64062500 10.64062500
385 1 9.22187500 0.70937500 0.70937500
386 1 9.22187500 0.70937500 2.12812500
387 1 9.22187500 0.70937500 3.54687500
388 1 9.22187500 0.70937500 4.96562500
389 1 9.22187500 0.70937500 6.38437500
390 1 9.22187500 0.70937500 7.80312500
391 1 9.22187500 0.70937500 9.22187500
392 1 9.22187500 0.70937500 10.64062500
393 1 9.22187500 2.12812500 0.70937500
394 1 9.22187500 2.12812500 2.12812500
395 1 9.22187500 2.12812500 3.54687500
396 1 9.22187500 2.12812500 4.96562500
397 1 9.22187500 2.12812500 6.38437500
398 1 9.22187500 2.12812500 7.80312500
399 1 9.22187500 2.12812500 9.22187500
400 1 9.22187500 2.12812500 10.64062500
401 2 9.22187500 3.54687500 0.70937500
402 2 9.22187500 3.54687500 2.12812500
403 2 9.22187500 3.54687500 3.54687500
404 2 9.22187500 3.54687500 4.96562500
405 2 9.22187500 3.54687500 6.38437500
406 2 9.22187500 3.54687500 7.80312500
407 2 9.22187500 3.54687500 9.22187500
408 2 9.22187500 3.54687500 10.64062500
409 2 9.22187500 4.96562500 0.70937500
410 2 9.22187500 4.96562500 2.12812500
411 2 9.22187500 4.96562500 3.54687500
412 2 9.22187500 4.96562500 4.96562500
413 2 9.22187500 4.96562500 6.38437500
414 2 9.22187500 4.96562500 7.80312500
415 2 9.22187500 4.96562500 9.22187500
416 2 9.22187500 4.96562500 10.64062500
417 2 9.22187500 6.38437500 0.70937500
418 2 9.22187500 6.38437500 2.12812500
419 2 9.22187500 6.38437500 3.54687500
420 2 9.22187500 6.38437500 4.96562500
421 2 9.22187500 6.38437500 6.38437500
422 2 9.22187500 6.38437500 7.80312500
423 2 9.22187500 6.38437500 9.22187500
424 2 9.22187500 6.38437500 10.64062500
425 2 9.22187500 7.80312500 0.70937500
426 2 9.22187500 7.80312500 2.12812500
427 2 9.22187500 7.80312500 3.54687500
428 2 9.22187500 7.80312500 4.96562500
429 2 9.22187500 7.80312500 6.38437500
430 2 9.22187500 7.80312500 7.80312500
431 2 9.22187500 7.80312500 9.22187500
432 2 9.22187500 7.80312500 10.64062500
433 2 9.22187500 9.22187500 0.70937500
434 2 9.22187500 9.22187500 2.12812500
435 2 9.22187500 9.22187500 3.54687500
436 2 9.22187500 9.22187500 4.96562500
437 2 9.22187500 9.22187500 6.38437500
438 2 9.22187500 9.22187500 7.80312500
439 2 9.22187500 9.22187500 9.22187500
440 2 9.22187500 9.22187500 10.64062500
441 2 9.22187500 10.64062500 0.70937500
442 2 9.22187500 10.64062500 2.12812500
443 2 9.22187500 10.64062500 3.54687500
444 2 9.22187500 10.64062500 4.96562500
445 2 9.22187500 10.64062500 6.38437500
446 2 9.22187500 10.64062500 7.80312500
447 2 9.22187500 10.64062500 9.22187500
448 2 9.22187500 10.64062500 10.64062500
449 2 10.64062500 0.70937500 0.70937500
450 2 10.64062500 0.70937500 2.12812500
451 2 10.64062500 0.70937500 3.54687500
452 2 10.64062500 0.70937500 4.96562500
453 2 10.64062500 0.70937500 6.38437500
454 2 10.64062500 0.70937500 7.80312500
455 2 10.64062500 0.70937500 9.22187500
456 2 10.64062500 0.70937500 10.64062500
457 3 10.64062500 2.12812500 0.70937500
458 3 10.64062500 2.12812500 2.12812500
459 3 10.64062500 2.12812500 3.54687500
460 3 10.64062500 2.12812500 4.96562500
461 3 10.64062500 2.12812500 6.38437500
462 3 10.64062500 2.12812500 7.80312500
463 3 10.64062500 2.12812500 9.22187500
464 3 10.64062500 2.12812500 10.64062500
465 3 10.64062500 3.54687500 0.70937500
466 3 10.64062500 3.54687500 2.12812500
467 3 10.64062500 3.54687500 3.54687500
468 3 10.64062500 3.54687500 4.96562500
469 3 10.64062500 3.54687500 6.38437500
470 3 10.64062500 3.54687500 7.80312500
471 3 10.64062500 3.54687500 9.22187500
472 3 10.64062500 3.54687500 10.64062500
473 3 10.64062500 4.96562500 0.70937500
474 3 10.64062500 4.96562500 2.12812500
475 3 10.64062500 4.96562500 3.54687500
476 3 10.64062500 4.96562500 4.96562500
477 3 10.64062500 4.96562500 6.38437500
478 3 10.64062500 4.96562500 7.80312500
479 3 10.64062500 4.96562500 9.22187500
480 3 10.64062500 4.96562500 10.64062500
481 3 10.64062500 6.38437500 0.70937500
482 3 10.64062500 6.38437500 2.12812500
483 3 10.64062500 6.38437500 3.54687500
484 3 10.64062500 6.38437500 4.96562500
485 3 10.64062500 6.38437500 6.38437500
486 3 10.64062500 6.38437500 7.80312500
487 3 10.64062500 6.38437500 9.22187500
488 3 10.64062500 6.38437500 10.64062500
489 3 10.64062500 7.80312500 0.70937500
490 3 10.64062500 7.80312500 2.12812500
491 3 10.64062500 7.80312500 3.54687500
492 3 10.64062500 7.80312500 4.96562500
493 3 10.64062500 7.80312500 6.38437500
494 3 10.64062500 7.80312500 7.80312500
495 3 10.64062500 7.80312500 9.22187500
496 3 10.64062500 7.80312500 10.64062500
497 3 10.64062500 9.22187500 0.70937500
498 3 10.64062500 9.22187500 2.12812500
499 3 10.64062500 9.22187500 3.54687500
500 3 10.64062500 9.22187500 4.96562500
501 3 10.64062500 9.22187500 6.38437500
502 3 10.64062500 9.22187500 7.80312500
503 3 10.64062500 9.22187500 9.22187500
504 3 10.64062500 9.22187500 10.64062500
505 3 10.64062500 10.64062500 0.70937500
506 3 10.64062500 10.64062500 2.12812500
507 3 10.64062500 10.64062500 3.54687500
508 3 10.64062500 10.64062500 4.96562500
509 3 10.64062500 10.64062500 6.38437500
510 3 10.64062500 10.64062500 7.80312500
511 3 10.64062500 10.64062500 9.22187500
512 3 10.64062500 10.64062500 10.64062500
