LAMMPS Simulation Data
452 atoms
3 atom types

0 10.86 xlo xhi 
0 10.86 ylo yhi 
0 10.86 zlo zhi 

Masses

1 1.0
2 1.0
3 1.0

Atoms

1 1 0.67875000 0.67875000 0.67875000
2 1 0.67875000 0.67875000 2.03625000
3 1 0.67875000 0.67875000 3.39375000
4 1 0.67875000 0.67875000 4.75125000
5 1 0.67875000 0.67875000 6.10875000
6 1 0.67875000 0.67875000 7.46625000
7 1 0.67875000 0.67875000 8.82375000
8 1 0.67875000 0.67875000 10.18125000
9 1 0.67875000 2.03625000 0.67875000
10 1 0.67875000 2.03625000 2.03625000
11 1 0.67875000 2.03625000 3.39375000
12 1 0.67875000 2.03625000 4.75125000
13 1 0.67875000 2.03625000 6.10875000
14 1 0.67875000 2.03625000 7.46625000
15 1 0.67875000 2.03625000 8.82375000
16 1 0.67875000 2.03625000 10.18125000
17 1 0.67875000 3.39375000 0.67875000
18 1 0.67875000 3.39375000 2.03625000
19 1 0.67875000 3.39375000 3.39375000
20 1 0.67875000 3.39375000 4.75125000
21 1 0.67875000 3.39375000 6.10875000
22 1 0.67875000 3.39375000 7.46625000
23 1 0.67875000 3.39375000 8.82375000
24 1 0.67875000 3.39375000 10.18125000
25 1 0.67875000 4.75125000 0.67875000
26 1 0.67875000 4.75125000 2.03625000
27 1 0.67875000 4.75125000 3.39375000
28 1 0.67875000 4.75125000 4.75125000
29 1 0.67875000 4.75125000 6.10875000
30 1 0.67875000 4.75125000 7.46625000
31 1 0.67875000 4.75125000 8.82375000
32 1 0.67875000 4.75125000 10.18125000
33 1 0.67875000 6.10875000 0.67875000
34 1 0.67875000 6.10875000 2.03625000
35 1 0.67875000 6.10875000 3.39375000
36 1 0.67875000 6.10875000 4.75125000
37 1 0.67875000 6.10875000 6.10875000
38 1 0.67875000 6.10875000 7.46625000
39 1 0.67875000 6.10875000 8.82375000
40 1 0.67875000 6.10875000 10.18125000
41 1 0.67875000 7.46625000 0.67875000
42 1 0.67875000 7.46625000 2.03625000
43 1 0.67875000 7.46625000 3.39375000
44 1 0.67875000 7.46625000 4.75125000
45 1 0.67875000 7.46625000 6.10875000
46 1 0.67875000 7.46625000 7.46625000
47 1 0.67875000 7.46625000 8.82375000
48 1 0.67875000 7.46625000 10.18125000
49 1 0.67875000 8.82375000 0.67875000
50 1 0.67875000 8.82375000 2.03625000
51 1 0.67875000 8.82375000 3.39375000
52 1 0.67875000 8.82375000 4.75125000
53 1 0.67875000 8.82375000 6.10875000
54 1 0.67875000 8.82375000 7.46625000
55 1 0.67875000 8.82375000 8.82375000
56 1 0.67875000 8.82375000 10.18125000
57 1 0.67875000 10.18125000 0.67875000
58 1 0.67875000 10.18125000 2.03625000
59 1 0.67875000 10.18125000 3.39375000
60 1 0.67875000 10.18125000 4.75125000
61 1 0.67875000 10.18125000 6.10875000
62 1 0.67875000 10.18125000 7.46625000
63 1 0.67875000 10.18125000 8.82375000
64 1 0.67875000 10.18125000 10.18125000
65 1 2.03625000 0.67875000 0.67875000
66 1 2.03625000 0.67875000 2.03625000
67 1 2.03625000 0.67875000 3.39375000
68 1 2.03625000 0.67875000 4.75125000
69 1 2.03625000 0.67875000 6.10875000
70 1 2.03625000 0.67875000 7.46625000
71 1 2.03625000 0.67875000 8.82375000
72 1 2.03625000 0.67875000 10.18125000
73 1 2.03625000 2.03625000 0.67875000
74 1 2.03625000 2.03625000 2.03625000
75 1 2.03625000 2.03625000 3.39375000
76 1 2.03625000 2.03625000 4.75125000
77 1 2.03625000 2.03625000 6.10875000
78 1 2.03625000 2.03625000 7.46625000
79 1 2.03625000 2.03625000 8.82375000
80 1 2.03625000 2.03625000 10.18125000
81 1 2.03625000 3.39375000 0.67875000
82 1 2.03625000 3.39375000 2.03625000
83 1 2.03625000 3.39375000 3.39375000
84 1 2.03625000 3.39375000 4.75125000
85 1 2.03625000 3.39375000 6.10875000
86 1 2.03625000 3.39375000 7.46625000
87 1 2.03625000 3.39375000 8.82375000
88 1 2.03625000 3.39375000 10.18125000
89 1 2.03625000 4.75125000 0.67875000
90 1 2.03625000 4.75125000 2.03625000
91 1 2.03625000 4.75125000 3.39375000
92 1 2.03625000 4.75125000 4.75125000
93 1 2.03625000 4.75125000 6.10875000
94 1 2.03625000 4.75125000 7.46625000
95 1 2.03625000 4.75125000 8.82375000
96 1 2.03625000 4.75125000 10.18125000
97 1 2.03625000 6.10875000 0.67875000
98 1 2.03625000 6.10875000 2.03625000
99 1 2.03625000 6.10875000 3.39375000
100 1 2.03625000 6.10875000 4.75125000
101 1 2.03625000 6.10875000 6.10875000
102 1 2.03625000 6.10875000 7.46625000
103 1 2.03625000 6.10875000 8.82375000
104 1 2.03625000 6.10875000 10.18125000
105 1 2.03625000 7.46625000 0.67875000
106 1 2.03625000 7.46625000 2.03625000
107 1 2.03625000 7.46625000 3.39375000
108 1 2.03625000 7.46625000 4.75125000
109 1 2.03625000 7.46625000 6.10875000
110 1 2.03625000 7.46625000 7.46625000
111 1 2.03625000 7.46625000 8.82375000
112 1 2.03625000 7.46625000 10.18125000
113 1 2.03625000 8.82375000 0.67875000
114 1 2.03625000 8.82375000 2.03625000
115 1 2.03625000 8.82375000 3.39375000
116 1 2.03625000 8.82375000 4.75125000
117 1 2.03625000 8.82375000 6.10875000
118 1 2.03625000 8.82375000 7.46625000
119 1 2.03625000 8.82375000 8.82375000
120 1 2.03625000 8.82375000 10.18125000
121 1 2.03625000 10.18125000 0.67875000
122 1 2.03625000 10.18125000 2.03625000
123 1 2.03625000 10.18125000 3.39375000
124 1 2.03625000 10.18125000 4.75125000
125 1 2.03625000 10.18125000 6.10875000
126 1 2.03625000 10.18125000 7.46625000
127 1 2.03625000 10.18125000 8.82375000
128 1 2.03625000 10.18125000 10.18125000
129 1 3.39375000 0.67875000 0.67875000
130 1 3.39375000 0.67875000 2.03625000
131 1 3.39375000 0.67875000 3.39375000
132 1 3.39375000 0.67875000 4.75125000
133 1 3.39375000 0.67875000 6.10875000
134 1 3.39375000 0.67875000 7.46625000
135 1 3.39375000 0.67875000 8.82375000
136 1 3.39375000 0.67875000 10.18125000
137 1 3.39375000 2.03625000 0.67875000
138 1 3.39375000 2.03625000 2.03625000
139 1 3.39375000 2.03625000 3.39375000
140 1 3.39375000 2.03625000 4.75125000
141 1 3.39375000 2.03625000 6.10875000
142 1 3.39375000 2.03625000 7.46625000
143 1 3.39375000 2.03625000 8.82375000
144 1 3.39375000 2.03625000 10.18125000
145 1 3.39375000 3.39375000 0.67875000
146 1 3.39375000 3.39375000 2.03625000
147 1 3.39375000 3.39375000 3.39375000
148 1 3.39375000 3.39375000 4.75125000
149 1 3.39375000 3.39375000 6.10875000
150 1 3.39375000 3.39375000 7.46625000
151 1 3.39375000 3.39375000 8.82375000
152 1 3.39375000 3.39375000 10.18125000
153 1 3.39375000 4.75125000 0.67875000
154 1 3.39375000 4.75125000 2.03625000
155 1 3.39375000 4.75125000 3.39375000
156 1 3.39375000 4.75125000 4.75125000
157 1 3.39375000 4.75125000 6.10875000
158 1 3.39375000 4.75125000 7.46625000
159 1 3.39375000 4.75125000 8.82375000
160 1 3.39375000 4.75125000 10.18125000
161 1 3.39375000 6.10875000 0.67875000
162 1 3.39375000 6.10875000 2.03625000
163 1 3.39375000 6.10875000 3.39375000
164 1 3.39375000 6.10875000 4.75125000
165 1 3.39375000 6.10875000 6.10875000
166 1 3.39375000 6.10875000 7.46625000
167 1 3.39375000 6.10875000 8.82375000
168 1 3.39375000 6.10875000 10.18125000
169 1 3.39375000 7.46625000 0.67875000
170 1 3.39375000 7.46625000 2.03625000
171 1 3.39375000 7.46625000 3.39375000
172 1 3.39375000 7.46625000 4.75125000
173 1 3.39375000 7.46625000 6.10875000
174 1 3.39375000 7.46625000 7.46625000
175 1 3.39375000 7.46625000 8.82375000
176 1 3.39375000 7.46625000 10.18125000
177 1 3.39375000 8.82375000 0.67875000
178 1 3.39375000 8.82375000 2.03625000
179 1 3.39375000 8.82375000 3.39375000
180 1 3.39375000 8.82375000 4.75125000
181 1 3.39375000 8.82375000 6.10875000
182 1 3.39375000 8.82375000 7.46625000
183 1 3.39375000 8.82375000 8.82375000
184 1 3.39375000 8.82375000 10.18125000
185 1 3.39375000 10.18125000 0.67875000
186 1 3.39375000 10.18125000 2.03625000
187 1 3.39375000 10.18125000 3.39375000
188 1 3.39375000 10.18125000 4.75125000
189 1 3.39375000 10.18125000 6.10875000
190 1 3.39375000 10.18125000 7.46625000
191 1 3.39375000 10.18125000 8.82375000
192 1 3.39375000 10.18125000 10.18125000
193 1 4.75125000 0.67875000 0.67875000
194 1 4.75125000 0.67875000 2.03625000
195 1 4.75125000 0.67875000 3.39375000
196 1 4.75125000 0.67875000 4.75125000
197 1 4.75125000 0.67875000 6.10875000
198 1 4.75125000 0.67875000 7.46625000
199 1 4.75125000 0.67875000 8.82375000
200 1 4.75125000 0.67875000 10.18125000
201 1 4.75125000 2.03625000 0.67875000
202 1 4.75125000 2.03625000 2.03625000
203 1 4.75125000 2.03625000 3.39375000
204 1 4.75125000 2.03625000 4.75125000
205 1 4.75125000 2.03625000 6.10875000
206 1 4.75125000 2.03625000 7.46625000
207 1 4.75125000 2.03625000 8.82375000
208 1 4.75125000 2.03625000 10.18125000
209 1 4.75125000 3.39375000 0.67875000
210 1 4.75125000 3.39375000 2.03625000
211 1 4.75125000 3.39375000 3.39375000
212 1 4.75125000 3.39375000 4.75125000
213 1 4.75125000 3.39375000 6.10875000
214 1 4.75125000 3.39375000 7.46625000
215 1 4.75125000 3.39375000 8.82375000
216 1 4.75125000 3.39375000 10.18125000
217 1 4.75125000 4.75125000 0.67875000
218 1 4.75125000 4.75125000 2.03625000
219 1 4.75125000 4.75125000 3.39375000
220 1 4.75125000 4.75125000 4.75125000
221 1 4.75125000 4.75125000 6.10875000
222 1 4.75125000 4.75125000 7.46625000
223 1 4.75125000 4.75125000 8.82375000
224 1 4.75125000 4.75125000 10.18125000
225 1 4.75125000 6.10875000 0.67875000
226 1 4.75125000 6.10875000 2.03625000
227 1 4.75125000 6.10875000 3.39375000
228 1 4.75125000 6.10875000 4.75125000
229 1 4.75125000 6.10875000 6.10875000
230 1 4.75125000 6.10875000 7.46625000
231 1 4.75125000 6.10875000 8.82375000
232 1 4.75125000 6.10875000 10.18125000
233 1 4.75125000 7.46625000 0.67875000
234 1 4.75125000 7.46625000 2.03625000
235 1 4.75125000 7.46625000 3.39375000
236 1 4.75125000 7.46625000 4.75125000
237 1 4.75125000 7.46625000 6.10875000
238 1 4.75125000 7.46625000 7.46625000
239 1 4.75125000 7.46625000 8.82375000
240 1 4.75125000 7.46625000 10.18125000
241 1 4.75125000 8.82375000 0.67875000
242 1 4.75125000 8.82375000 2.03625000
243 1 4.75125000 8.82375000 3.39375000
244 1 4.75125000 8.82375000 4.75125000
245 1 4.75125000 8.82375000 6.10875000
246 1 4.75125000 8.82375000 7.46625000
247 1 4.75125000 8.82375000 8.82375000
248 1 4.75125000 8.82375000 10.18125000
249 1 4.75125000 10.18125000 0.67875000
250 1 4.75125000 10.18125000 2.03625000
251 1 4.75125000 10.18125000 3.39375000
252 1 4.75125000 10.18125000 4.75125000
253 1 4.75125000 10.18125000 6.10875000
254 1 4.75125000 10.18125000 7.46625000
255 1 4.75125000 10.18125000 8.82375000
256 1 4.75125000 10.18125000 10.18125000
257 1 6.10875000 0.67875000 0.67875000
258 1 6.10875000 0.67875000 2.03625000
259 1 6.10875000 0.67875000 3.39375000
260 1 6.10875000 0.67875000 4.75125000
261 1 6.10875000 0.67875000 6.10875000
262 1 6.10875000 0.67875000 7.46625000
263 1 6.10875000 0.67875000 8.82375000
264 1 6.10875000 0.67875000 10.18125000
265 1 6.10875000 2.03625000 0.67875000
266 1 6.10875000 2.03625000 2.03625000
267 1 6.10875000 2.03625000 3.39375000
268 1 6.10875000 2.03625000 4.75125000
269 1 6.10875000 2.03625000 6.10875000
270 1 6.10875000 2.03625000 7.46625000
271 1 6.10875000 2.03625000 8.82375000
272 1 6.10875000 2.03625000 10.18125000
273 1 6.10875000 3.39375000 0.67875000
274 1 6.10875000 3.39375000 2.03625000
275 1 6.10875000 3.39375000 3.39375000
276 1 6.10875000 3.39375000 4.75125000
277 1 6.10875000 3.39375000 6.10875000
278 1 6.10875000 3.39375000 7.46625000
279 1 6.10875000 3.39375000 8.82375000
280 1 6.10875000 3.39375000 10.18125000
281 1 6.10875000 4.75125000 0.67875000
282 1 6.10875000 4.75125000 2.03625000
283 1 6.10875000 4.75125000 3.39375000
284 1 6.10875000 4.75125000 4.75125000
285 1 6.10875000 4.75125000 6.10875000
286 1 6.10875000 4.75125000 7.46625000
287 1 6.10875000 4.75125000 8.82375000
288 1 6.10875000 4.75125000 10.18125000
289 1 6.10875000 6.10875000 0.67875000
290 1 6.10875000 6.10875000 2.03625000
291 1 6.10875000 6.10875000 3.39375000
292 1 6.10875000 6.10875000 4.75125000
293 1 6.10875000 6.10875000 6.10875000
294 1 6.10875000 6.10875000 7.46625000
295 1 6.10875000 6.10875000 8.82375000
296 1 6.10875000 6.10875000 10.18125000
297 1 6.10875000 7.46625000 0.67875000
298 1 6.10875000 7.46625000 2.03625000
299 1 6.10875000 7.46625000 3.39375000
300 1 6.10875000 7.46625000 4.75125000
301 1 6.10875000 7.46625000 6.10875000
302 1 6.10875000 7.46625000 7.46625000
303 1 6.10875000 7.46625000 8.82375000
304 1 6.10875000 7.46625000 10.18125000
305 1 6.10875000 8.82375000 0.67875000
306 1 6.10875000 8.82375000 2.03625000
307 1 6.10875000 8.82375000 3.39375000
308 1 6.10875000 8.82375000 4.75125000
309 1 6.10875000 8.82375000 6.10875000
310 1 6.10875000 8.82375000 7.46625000
311 1 6.10875000 8.82375000 8.82375000
312 1 6.10875000 8.82375000 10.18125000
313 1 6.10875000 10.18125000 0.67875000
314 1 6.10875000 10.18125000 2.03625000
315 1 6.10875000 10.18125000 3.39375000
316 1 6.10875000 10.18125000 4.75125000
317 1 6.10875000 10.18125000 6.10875000
318 1 6.10875000 10.18125000 7.46625000
319 1 6.10875000 10.18125000 8.82375000
320 1 6.10875000 10.18125000 10.18125000
321 1 7.46625000 0.67875000 0.67875000
322 1 7.46625000 0.67875000 2.03625000
323 1 7.46625000 0.67875000 3.39375000
324 1 7.46625000 0.67875000 4.75125000
325 1 7.46625000 0.67875000 6.10875000
326 1 7.46625000 0.67875000 7.46625000
327 1 7.46625000 0.67875000 8.82375000
328 1 7.46625000 0.67875000 10.18125000
329 1 7.46625000 2.03625000 0.67875000
330 1 7.46625000 2.03625000 2.03625000
331 1 7.46625000 2.03625000 3.39375000
332 1 7.46625000 2.03625000 4.75125000
333 1 7.46625000 2.03625000 6.10875000
334 1 7.46625000 2.03625000 7.46625000
335 1 7.46625000 2.03625000 8.82375000
336 1 7.46625000 2.03625000 10.18125000
337 1 7.46625000 3.39375000 0.67875000
338 1 7.46625000 3.39375000 2.03625000
339 1 7.46625000 3.39375000 3.39375000
340 1 7.46625000 3.39375000 4.75125000
341 1 7.46625000 3.39375000 6.10875000
342 1 7.46625000 3.39375000 7.46625000
343 1 7.46625000 3.39375000 8.82375000
344 1 7.46625000 3.39375000 10.18125000
345 1 7.46625000 4.75125000 0.67875000
346 1 7.46625000 4.75125000 2.03625000
347 1 7.46625000 4.75125000 3.39375000
348 1 7.46625000 4.75125000 4.75125000
349 1 7.46625000 4.75125000 6.10875000
350 1 7.46625000 4.75125000 7.46625000
351 1 7.46625000 4.75125000 8.82375000
352 1 7.46625000 4.75125000 10.18125000
353 1 7.46625000 6.10875000 0.67875000
354 1 7.46625000 6.10875000 2.03625000
355 1 7.46625000 6.10875000 3.39375000
356 1 7.46625000 6.10875000 4.75125000
357 1 7.46625000 6.10875000 6.10875000
358 1 7.46625000 6.10875000 7.46625000
359 1 7.46625000 6.10875000 8.82375000
360 1 7.46625000 6.10875000 10.18125000
361 1 7.46625000 7.46625000 0.67875000
362 1 7.46625000 7.46625000 2.03625000
363 1 7.46625000 7.46625000 3.39375000
364 1 7.46625000 7.46625000 4.75125000
365 1 7.46625000 7.46625000 6.10875000
366 1 7.46625000 7.46625000 7.46625000
367 1 7.46625000 7.46625000 8.82375000
368 1 7.46625000 7.46625000 10.18125000
369 1 7.46625000 8.82375000 0.67875000
370 1 7.46625000 8.82375000 2.03625000
371 1 7.46625000 8.82375000 3.39375000
372 1 7.46625000 8.82375000 4.75125000
373 1 7.46625000 8.82375000 6.10875000
374 1 7.46625000 8.82375000 7.46625000
375 1 7.46625000 8.82375000 8.82375000
376 1 7.46625000 8.82375000 10.18125000
377 1 7.46625000 10.18125000 0.67875000
378 1 7.46625000 10.18125000 2.03625000
379 1 7.46625000 10.18125000 3.39375000
380 1 7.46625000 10.18125000 4.75125000
381 1 7.46625000 10.18125000 6.10875000
382 1 7.46625000 10.18125000 7.46625000
383 1 7.46625000 10.18125000 8.82375000
384 1 7.46625000 10.18125000 10.18125000
385 1 8.82375000 0.67875000 0.67875000
386 1 8.82375000 0.67875000 2.03625000
387 1 8.82375000 0.67875000 3.39375000
388 1 8.82375000 0.67875000 4.75125000
389 1 8.82375000 0.67875000 6.10875000
390 1 8.82375000 0.67875000 7.46625000
391 1 8.82375000 0.67875000 8.82375000
392 1 8.82375000 0.67875000 10.18125000
393 1 8.82375000 2.03625000 0.67875000
394 1 8.82375000 2.03625000 2.03625000
395 1 8.82375000 2.03625000 3.39375000
396 1 8.82375000 2.03625000 4.75125000
397 1 8.82375000 2.03625000 6.10875000
398 1 8.82375000 2.03625000 7.46625000
399 1 8.82375000 2.03625000 8.82375000
400 1 8.82375000 2.03625000 10.18125000
401 2 8.82375000 3.39375000 0.67875000
402 2 8.82375000 3.39375000 2.03625000
403 2 8.82375000 3.39375000 3.39375000
404 2 8.82375000 3.39375000 4.75125000
405 2 8.82375000 3.39375000 6.10875000
406 2 8.82375000 3.39375000 7.46625000
407 2 8.82375000 3.39375000 8.82375000
408 2 8.82375000 3.39375000 10.18125000
409 2 8.82375000 4.75125000 0.67875000
410 2 8.82375000 4.75125000 2.03625000
411 2 8.82375000 4.75125000 3.39375000
412 2 8.82375000 4.75125000 4.75125000
413 2 8.82375000 4.75125000 6.10875000
414 2 8.82375000 4.75125000 7.46625000
415 2 8.82375000 4.75125000 8.82375000
416 2 8.82375000 4.75125000 10.18125000
417 2 8.82375000 6.10875000 0.67875000
418 2 8.82375000 6.10875000 2.03625000
419 2 8.82375000 6.10875000 3.39375000
420 2 8.82375000 6.10875000 4.75125000
421 2 8.82375000 6.10875000 6.10875000
422 2 8.82375000 6.10875000 7.46625000
423 2 8.82375000 6.10875000 8.82375000
424 2 8.82375000 6.10875000 10.18125000
425 2 8.82375000 7.46625000 0.67875000
426 2 8.82375000 7.46625000 2.03625000
427 3 8.82375000 7.46625000 3.39375000
428 3 8.82375000 7.46625000 4.75125000
429 3 8.82375000 7.46625000 6.10875000
430 3 8.82375000 7.46625000 7.46625000
431 3 8.82375000 7.46625000 8.82375000
432 3 8.82375000 7.46625000 10.18125000
433 3 8.82375000 8.82375000 0.67875000
434 3 8.82375000 8.82375000 2.03625000
435 3 8.82375000 8.82375000 3.39375000
436 3 8.82375000 8.82375000 4.75125000
437 3 8.82375000 8.82375000 6.10875000
438 3 8.82375000 8.82375000 7.46625000
439 3 8.82375000 8.82375000 8.82375000
440 3 8.82375000 8.82375000 10.18125000
441 3 8.82375000 10.18125000 0.67875000
442 3 8.82375000 10.18125000 2.03625000
443 3 8.82375000 10.18125000 3.39375000
444 3 8.82375000 10.18125000 4.75125000
445 3 8.82375000 10.18125000 6.10875000
446 3 8.82375000 10.18125000 7.46625000
447 3 8.82375000 10.18125000 8.82375000
448 3 8.82375000 10.18125000 10.18125000
449 3 10.18125000 0.67875000 0.67875000
450 3 10.18125000 0.67875000 2.03625000
451 3 10.18125000 0.67875000 3.39375000
452 3 10.18125000 0.67875000 4.75125000
