LAMMPS Simulation Data
512 atoms
2 atom types

0 97.21 xlo xhi 
0 97.21 ylo yhi 
0 97.21 zlo zhi 

Masses

1 1.0
2 1.0

Atoms

1 1 6.07562500 6.07562500 6.07562500
2 1 6.07562500 6.07562500 18.22687500
3 1 6.07562500 6.07562500 30.37812500
4 1 6.07562500 6.07562500 42.52937500
5 1 6.07562500 6.07562500 54.68062500
6 1 6.07562500 6.07562500 66.83187500
7 1 6.07562500 6.07562500 78.98312500
8 1 6.07562500 6.07562500 91.13437500
9 1 6.07562500 18.22687500 6.07562500
10 1 6.07562500 18.22687500 18.22687500
11 1 6.07562500 18.22687500 30.37812500
12 1 6.07562500 18.22687500 42.52937500
13 1 6.07562500 18.22687500 54.68062500
14 1 6.07562500 18.22687500 66.83187500
15 1 6.07562500 18.22687500 78.98312500
16 1 6.07562500 18.22687500 91.13437500
17 1 6.07562500 30.37812500 6.07562500
18 1 6.07562500 30.37812500 18.22687500
19 1 6.07562500 30.37812500 30.37812500
20 1 6.07562500 30.37812500 42.52937500
21 1 6.07562500 30.37812500 54.68062500
22 1 6.07562500 30.37812500 66.83187500
23 1 6.07562500 30.37812500 78.98312500
24 1 6.07562500 30.37812500 91.13437500
25 1 6.07562500 42.52937500 6.07562500
26 1 6.07562500 42.52937500 18.22687500
27 1 6.07562500 42.52937500 30.37812500
28 1 6.07562500 42.52937500 42.52937500
29 1 6.07562500 42.52937500 54.68062500
30 1 6.07562500 42.52937500 66.83187500
31 1 6.07562500 42.52937500 78.98312500
32 1 6.07562500 42.52937500 91.13437500
33 1 6.07562500 54.68062500 6.07562500
34 1 6.07562500 54.68062500 18.22687500
35 1 6.07562500 54.68062500 30.37812500
36 1 6.07562500 54.68062500 42.52937500
37 1 6.07562500 54.68062500 54.68062500
38 1 6.07562500 54.68062500 66.83187500
39 1 6.07562500 54.68062500 78.98312500
40 1 6.07562500 54.68062500 91.13437500
41 1 6.07562500 66.83187500 6.07562500
42 1 6.07562500 66.83187500 18.22687500
43 1 6.07562500 66.83187500 30.37812500
44 1 6.07562500 66.83187500 42.52937500
45 1 6.07562500 66.83187500 54.68062500
46 1 6.07562500 66.83187500 66.83187500
47 1 6.07562500 66.83187500 78.98312500
48 1 6.07562500 66.83187500 91.13437500
49 1 6.07562500 78.98312500 6.07562500
50 1 6.07562500 78.98312500 18.22687500
51 1 6.07562500 78.98312500 30.37812500
52 1 6.07562500 78.98312500 42.52937500
53 1 6.07562500 78.98312500 54.68062500
54 1 6.07562500 78.98312500 66.83187500
55 1 6.07562500 78.98312500 78.98312500
56 1 6.07562500 78.98312500 91.13437500
57 1 6.07562500 91.13437500 6.07562500
58 1 6.07562500 91.13437500 18.22687500
59 1 6.07562500 91.13437500 30.37812500
60 1 6.07562500 91.13437500 42.52937500
61 1 6.07562500 91.13437500 54.68062500
62 1 6.07562500 91.13437500 66.83187500
63 1 6.07562500 91.13437500 78.98312500
64 1 6.07562500 91.13437500 91.13437500
65 1 18.22687500 6.07562500 6.07562500
66 1 18.22687500 6.07562500 18.22687500
67 1 18.22687500 6.07562500 30.37812500
68 1 18.22687500 6.07562500 42.52937500
69 1 18.22687500 6.07562500 54.68062500
70 1 18.22687500 6.07562500 66.83187500
71 1 18.22687500 6.07562500 78.98312500
72 1 18.22687500 6.07562500 91.13437500
73 1 18.22687500 18.22687500 6.07562500
74 1 18.22687500 18.22687500 18.22687500
75 1 18.22687500 18.22687500 30.37812500
76 1 18.22687500 18.22687500 42.52937500
77 1 18.22687500 18.22687500 54.68062500
78 1 18.22687500 18.22687500 66.83187500
79 1 18.22687500 18.22687500 78.98312500
80 1 18.22687500 18.22687500 91.13437500
81 1 18.22687500 30.37812500 6.07562500
82 1 18.22687500 30.37812500 18.22687500
83 1 18.22687500 30.37812500 30.37812500
84 1 18.22687500 30.37812500 42.52937500
85 1 18.22687500 30.37812500 54.68062500
86 1 18.22687500 30.37812500 66.83187500
87 1 18.22687500 30.37812500 78.98312500
88 1 18.22687500 30.37812500 91.13437500
89 1 18.22687500 42.52937500 6.07562500
90 1 18.22687500 42.52937500 18.22687500
91 1 18.22687500 42.52937500 30.37812500
92 1 18.22687500 42.52937500 42.52937500
93 1 18.22687500 42.52937500 54.68062500
94 1 18.22687500 42.52937500 66.83187500
95 1 18.22687500 42.52937500 78.98312500
96 1 18.22687500 42.52937500 91.13437500
97 1 18.22687500 54.68062500 6.07562500
98 1 18.22687500 54.68062500 18.22687500
99 1 18.22687500 54.68062500 30.37812500
100 1 18.22687500 54.68062500 42.52937500
101 1 18.22687500 54.68062500 54.68062500
102 1 18.22687500 54.68062500 66.83187500
103 1 18.22687500 54.68062500 78.98312500
104 1 18.22687500 54.68062500 91.13437500
105 1 18.22687500 66.83187500 6.07562500
106 1 18.22687500 66.83187500 18.22687500
107 1 18.22687500 66.83187500 30.37812500
108 1 18.22687500 66.83187500 42.52937500
109 1 18.22687500 66.83187500 54.68062500
110 1 18.22687500 66.83187500 66.83187500
111 1 18.22687500 66.83187500 78.98312500
112 1 18.22687500 66.83187500 91.13437500
113 1 18.22687500 78.98312500 6.07562500
114 1 18.22687500 78.98312500 18.22687500
115 1 18.22687500 78.98312500 30.37812500
116 1 18.22687500 78.98312500 42.52937500
117 1 18.22687500 78.98312500 54.68062500
118 1 18.22687500 78.98312500 66.83187500
119 1 18.22687500 78.98312500 78.98312500
120 1 18.22687500 78.98312500 91.13437500
121 1 18.22687500 91.13437500 6.07562500
122 1 18.22687500 91.13437500 18.22687500
123 1 18.22687500 91.13437500 30.37812500
124 1 18.22687500 91.13437500 42.52937500
125 1 18.22687500 91.13437500 54.68062500
126 1 18.22687500 91.13437500 66.83187500
127 1 18.22687500 91.13437500 78.98312500
128 1 18.22687500 91.13437500 91.13437500
129 1 30.37812500 6.07562500 6.07562500
130 1 30.37812500 6.07562500 18.22687500
131 1 30.37812500 6.07562500 30.37812500
132 1 30.37812500 6.07562500 42.52937500
133 1 30.37812500 6.07562500 54.68062500
134 1 30.37812500 6.07562500 66.83187500
135 1 30.37812500 6.07562500 78.98312500
136 1 30.37812500 6.07562500 91.13437500
137 1 30.37812500 18.22687500 6.07562500
138 1 30.37812500 18.22687500 18.22687500
139 1 30.37812500 18.22687500 30.37812500
140 1 30.37812500 18.22687500 42.52937500
141 1 30.37812500 18.22687500 54.68062500
142 1 30.37812500 18.22687500 66.83187500
143 1 30.37812500 18.22687500 78.98312500
144 1 30.37812500 18.22687500 91.13437500
145 1 30.37812500 30.37812500 6.07562500
146 1 30.37812500 30.37812500 18.22687500
147 1 30.37812500 30.37812500 30.37812500
148 1 30.37812500 30.37812500 42.52937500
149 1 30.37812500 30.37812500 54.68062500
150 1 30.37812500 30.37812500 66.83187500
151 1 30.37812500 30.37812500 78.98312500
152 1 30.37812500 30.37812500 91.13437500
153 1 30.37812500 42.52937500 6.07562500
154 1 30.37812500 42.52937500 18.22687500
155 1 30.37812500 42.52937500 30.37812500
156 1 30.37812500 42.52937500 42.52937500
157 1 30.37812500 42.52937500 54.68062500
158 1 30.37812500 42.52937500 66.83187500
159 1 30.37812500 42.52937500 78.98312500
160 1 30.37812500 42.52937500 91.13437500
161 1 30.37812500 54.68062500 6.07562500
162 1 30.37812500 54.68062500 18.22687500
163 1 30.37812500 54.68062500 30.37812500
164 1 30.37812500 54.68062500 42.52937500
165 1 30.37812500 54.68062500 54.68062500
166 1 30.37812500 54.68062500 66.83187500
167 1 30.37812500 54.68062500 78.98312500
168 1 30.37812500 54.68062500 91.13437500
169 1 30.37812500 66.83187500 6.07562500
170 1 30.37812500 66.83187500 18.22687500
171 1 30.37812500 66.83187500 30.37812500
172 1 30.37812500 66.83187500 42.52937500
173 1 30.37812500 66.83187500 54.68062500
174 1 30.37812500 66.83187500 66.83187500
175 1 30.37812500 66.83187500 78.98312500
176 1 30.37812500 66.83187500 91.13437500
177 1 30.37812500 78.98312500 6.07562500
178 1 30.37812500 78.98312500 18.22687500
179 1 30.37812500 78.98312500 30.37812500
180 1 30.37812500 78.98312500 42.52937500
181 1 30.37812500 78.98312500 54.68062500
182 1 30.37812500 78.98312500 66.83187500
183 1 30.37812500 78.98312500 78.98312500
184 1 30.37812500 78.98312500 91.13437500
185 1 30.37812500 91.13437500 6.07562500
186 1 30.37812500 91.13437500 18.22687500
187 1 30.37812500 91.13437500 30.37812500
188 1 30.37812500 91.13437500 42.52937500
189 1 30.37812500 91.13437500 54.68062500
190 1 30.37812500 91.13437500 66.83187500
191 1 30.37812500 91.13437500 78.98312500
192 1 30.37812500 91.13437500 91.13437500
193 1 42.52937500 6.07562500 6.07562500
194 1 42.52937500 6.07562500 18.22687500
195 1 42.52937500 6.07562500 30.37812500
196 1 42.52937500 6.07562500 42.52937500
197 1 42.52937500 6.07562500 54.68062500
198 1 42.52937500 6.07562500 66.83187500
199 1 42.52937500 6.07562500 78.98312500
200 1 42.52937500 6.07562500 91.13437500
201 1 42.52937500 18.22687500 6.07562500
202 1 42.52937500 18.22687500 18.22687500
203 1 42.52937500 18.22687500 30.37812500
204 1 42.52937500 18.22687500 42.52937500
205 1 42.52937500 18.22687500 54.68062500
206 1 42.52937500 18.22687500 66.83187500
207 1 42.52937500 18.22687500 78.98312500
208 1 42.52937500 18.22687500 91.13437500
209 1 42.52937500 30.37812500 6.07562500
210 1 42.52937500 30.37812500 18.22687500
211 1 42.52937500 30.37812500 30.37812500
212 1 42.52937500 30.37812500 42.52937500
213 1 42.52937500 30.37812500 54.68062500
214 1 42.52937500 30.37812500 66.83187500
215 1 42.52937500 30.37812500 78.98312500
216 1 42.52937500 30.37812500 91.13437500
217 1 42.52937500 42.52937500 6.07562500
218 1 42.52937500 42.52937500 18.22687500
219 1 42.52937500 42.52937500 30.37812500
220 1 42.52937500 42.52937500 42.52937500
221 1 42.52937500 42.52937500 54.68062500
222 1 42.52937500 42.52937500 66.83187500
223 1 42.52937500 42.52937500 78.98312500
224 1 42.52937500 42.52937500 91.13437500
225 1 42.52937500 54.68062500 6.07562500
226 1 42.52937500 54.68062500 18.22687500
227 1 42.52937500 54.68062500 30.37812500
228 1 42.52937500 54.68062500 42.52937500
229 1 42.52937500 54.68062500 54.68062500
230 1 42.52937500 54.68062500 66.83187500
231 1 42.52937500 54.68062500 78.98312500
232 1 42.52937500 54.68062500 91.13437500
233 1 42.52937500 66.83187500 6.07562500
234 1 42.52937500 66.83187500 18.22687500
235 1 42.52937500 66.83187500 30.37812500
236 1 42.52937500 66.83187500 42.52937500
237 1 42.52937500 66.83187500 54.68062500
238 1 42.52937500 66.83187500 66.83187500
239 1 42.52937500 66.83187500 78.98312500
240 1 42.52937500 66.83187500 91.13437500
241 1 42.52937500 78.98312500 6.07562500
242 1 42.52937500 78.98312500 18.22687500
243 1 42.52937500 78.98312500 30.37812500
244 1 42.52937500 78.98312500 42.52937500
245 1 42.52937500 78.98312500 54.68062500
246 1 42.52937500 78.98312500 66.83187500
247 1 42.52937500 78.98312500 78.98312500
248 1 42.52937500 78.98312500 91.13437500
249 1 42.52937500 91.13437500 6.07562500
250 1 42.52937500 91.13437500 18.22687500
251 1 42.52937500 91.13437500 30.37812500
252 1 42.52937500 91.13437500 42.52937500
253 1 42.52937500 91.13437500 54.68062500
254 1 42.52937500 91.13437500 66.83187500
255 1 42.52937500 91.13437500 78.98312500
256 1 42.52937500 91.13437500 91.13437500
257 2 54.68062500 6.07562500 6.07562500
258 2 54.68062500 6.07562500 18.22687500
259 2 54.68062500 6.07562500 30.37812500
260 2 54.68062500 6.07562500 42.52937500
261 2 54.68062500 6.07562500 54.68062500
262 2 54.68062500 6.07562500 66.83187500
263 2 54.68062500 6.07562500 78.98312500
264 2 54.68062500 6.07562500 91.13437500
265 2 54.68062500 18.22687500 6.07562500
266 2 54.68062500 18.22687500 18.22687500
267 2 54.68062500 18.22687500 30.37812500
268 2 54.68062500 18.22687500 42.52937500
269 2 54.68062500 18.22687500 54.68062500
270 2 54.68062500 18.22687500 66.83187500
271 2 54.68062500 18.22687500 78.98312500
272 2 54.68062500 18.22687500 91.13437500
273 2 54.68062500 30.37812500 6.07562500
274 2 54.68062500 30.37812500 18.22687500
275 2 54.68062500 30.37812500 30.37812500
276 2 54.68062500 30.37812500 42.52937500
277 2 54.68062500 30.37812500 54.68062500
278 2 54.68062500 30.37812500 66.83187500
279 2 54.68062500 30.37812500 78.98312500
280 2 54.68062500 30.37812500 91.13437500
281 2 54.68062500 42.52937500 6.07562500
282 2 54.68062500 42.52937500 18.22687500
283 2 54.68062500 42.52937500 30.37812500
284 2 54.68062500 42.52937500 42.52937500
285 2 54.68062500 42.52937500 54.68062500
286 2 54.68062500 42.52937500 66.83187500
287 2 54.68062500 42.52937500 78.98312500
288 2 54.68062500 42.52937500 91.13437500
289 2 54.68062500 54.68062500 6.07562500
290 2 54.68062500 54.68062500 18.22687500
291 2 54.68062500 54.68062500 30.37812500
292 2 54.68062500 54.68062500 42.52937500
293 2 54.68062500 54.68062500 54.68062500
294 2 54.68062500 54.68062500 66.83187500
295 2 54.68062500 54.68062500 78.98312500
296 2 54.68062500 54.68062500 91.13437500
297 2 54.68062500 66.83187500 6.07562500
298 2 54.68062500 66.83187500 18.22687500
299 2 54.68062500 66.83187500 30.37812500
300 2 54.68062500 66.83187500 42.52937500
301 2 54.68062500 66.83187500 54.68062500
302 2 54.68062500 66.83187500 66.83187500
303 2 54.68062500 66.83187500 78.98312500
304 2 54.68062500 66.83187500 91.13437500
305 2 54.68062500 78.98312500 6.07562500
306 2 54.68062500 78.98312500 18.22687500
307 2 54.68062500 78.98312500 30.37812500
308 2 54.68062500 78.98312500 42.52937500
309 2 54.68062500 78.98312500 54.68062500
310 2 54.68062500 78.98312500 66.83187500
311 2 54.68062500 78.98312500 78.98312500
312 2 54.68062500 78.98312500 91.13437500
313 2 54.68062500 91.13437500 6.07562500
314 2 54.68062500 91.13437500 18.22687500
315 2 54.68062500 91.13437500 30.37812500
316 2 54.68062500 91.13437500 42.52937500
317 2 54.68062500 91.13437500 54.68062500
318 2 54.68062500 91.13437500 66.83187500
319 2 54.68062500 91.13437500 78.98312500
320 2 54.68062500 91.13437500 91.13437500
321 2 66.83187500 6.07562500 6.07562500
322 2 66.83187500 6.07562500 18.22687500
323 2 66.83187500 6.07562500 30.37812500
324 2 66.83187500 6.07562500 42.52937500
325 2 66.83187500 6.07562500 54.68062500
326 2 66.83187500 6.07562500 66.83187500
327 2 66.83187500 6.07562500 78.98312500
328 2 66.83187500 6.07562500 91.13437500
329 2 66.83187500 18.22687500 6.07562500
330 2 66.83187500 18.22687500 18.22687500
331 2 66.83187500 18.22687500 30.37812500
332 2 66.83187500 18.22687500 42.52937500
333 2 66.83187500 18.22687500 54.68062500
334 2 66.83187500 18.22687500 66.83187500
335 2 66.83187500 18.22687500 78.98312500
336 2 66.83187500 18.22687500 91.13437500
337 2 66.83187500 30.37812500 6.07562500
338 2 66.83187500 30.37812500 18.22687500
339 2 66.83187500 30.37812500 30.37812500
340 2 66.83187500 30.37812500 42.52937500
341 2 66.83187500 30.37812500 54.68062500
342 2 66.83187500 30.37812500 66.83187500
343 2 66.83187500 30.37812500 78.98312500
344 2 66.83187500 30.37812500 91.13437500
345 2 66.83187500 42.52937500 6.07562500
346 2 66.83187500 42.52937500 18.22687500
347 2 66.83187500 42.52937500 30.37812500
348 2 66.83187500 42.52937500 42.52937500
349 2 66.83187500 42.52937500 54.68062500
350 2 66.83187500 42.52937500 66.83187500
351 2 66.83187500 42.52937500 78.98312500
352 2 66.83187500 42.52937500 91.13437500
353 2 66.83187500 54.68062500 6.07562500
354 2 66.83187500 54.68062500 18.22687500
355 2 66.83187500 54.68062500 30.37812500
356 2 66.83187500 54.68062500 42.52937500
357 2 66.83187500 54.68062500 54.68062500
358 2 66.83187500 54.68062500 66.83187500
359 2 66.83187500 54.68062500 78.98312500
360 2 66.83187500 54.68062500 91.13437500
361 2 66.83187500 66.83187500 6.07562500
362 2 66.83187500 66.83187500 18.22687500
363 2 66.83187500 66.83187500 30.37812500
364 2 66.83187500 66.83187500 42.52937500
365 2 66.83187500 66.83187500 54.68062500
366 2 66.83187500 66.83187500 66.83187500
367 2 66.83187500 66.83187500 78.98312500
368 2 66.83187500 66.83187500 91.13437500
369 2 66.83187500 78.98312500 6.07562500
370 2 66.83187500 78.98312500 18.22687500
371 2 66.83187500 78.98312500 30.37812500
372 2 66.83187500 78.98312500 42.52937500
373 2 66.83187500 78.98312500 54.68062500
374 2 66.83187500 78.98312500 66.83187500
375 2 66.83187500 78.98312500 78.98312500
376 2 66.83187500 78.98312500 91.13437500
377 2 66.83187500 91.13437500 6.07562500
378 2 66.83187500 91.13437500 18.22687500
379 2 66.83187500 91.13437500 30.37812500
380 2 66.83187500 91.13437500 42.52937500
381 2 66.83187500 91.13437500 54.68062500
382 2 66.83187500 91.13437500 66.83187500
383 2 66.83187500 91.13437500 78.98312500
384 2 66.83187500 91.13437500 91.13437500
385 2 78.98312500 6.07562500 6.07562500
386 2 78.98312500 6.07562500 18.22687500
387 2 78.98312500 6.07562500 30.37812500
388 2 78.98312500 6.07562500 42.52937500
389 2 78.98312500 6.07562500 54.68062500
390 2 78.98312500 6.07562500 66.83187500
391 2 78.98312500 6.07562500 78.98312500
392 2 78.98312500 6.07562500 91.13437500
393 2 78.98312500 18.22687500 6.07562500
394 2 78.98312500 18.22687500 18.22687500
395 2 78.98312500 18.22687500 30.37812500
396 2 78.98312500 18.22687500 42.52937500
397 2 78.98312500 18.22687500 54.68062500
398 2 78.98312500 18.22687500 66.83187500
399 2 78.98312500 18.22687500 78.98312500
400 2 78.98312500 18.22687500 91.13437500
401 2 78.98312500 30.37812500 6.07562500
402 2 78.98312500 30.37812500 18.22687500
403 2 78.98312500 30.37812500 30.37812500
404 2 78.98312500 30.37812500 42.52937500
405 2 78.98312500 30.37812500 54.68062500
406 2 78.98312500 30.37812500 66.83187500
407 2 78.98312500 30.37812500 78.98312500
408 2 78.98312500 30.37812500 91.13437500
409 2 78.98312500 42.52937500 6.07562500
410 2 78.98312500 42.52937500 18.22687500
411 2 78.98312500 42.52937500 30.37812500
412 2 78.98312500 42.52937500 42.52937500
413 2 78.98312500 42.52937500 54.68062500
414 2 78.98312500 42.52937500 66.83187500
415 2 78.98312500 42.52937500 78.98312500
416 2 78.98312500 42.52937500 91.13437500
417 2 78.98312500 54.68062500 6.07562500
418 2 78.98312500 54.68062500 18.22687500
419 2 78.98312500 54.68062500 30.37812500
420 2 78.98312500 54.68062500 42.52937500
421 2 78.98312500 54.68062500 54.68062500
422 2 78.98312500 54.68062500 66.83187500
423 2 78.98312500 54.68062500 78.98312500
424 2 78.98312500 54.68062500 91.13437500
425 2 78.98312500 66.83187500 6.07562500
426 2 78.98312500 66.83187500 18.22687500
427 2 78.98312500 66.83187500 30.37812500
428 2 78.98312500 66.83187500 42.52937500
429 2 78.98312500 66.83187500 54.68062500
430 2 78.98312500 66.83187500 66.83187500
431 2 78.98312500 66.83187500 78.98312500
432 2 78.98312500 66.83187500 91.13437500
433 2 78.98312500 78.98312500 6.07562500
434 2 78.98312500 78.98312500 18.22687500
435 2 78.98312500 78.98312500 30.37812500
436 2 78.98312500 78.98312500 42.52937500
437 2 78.98312500 78.98312500 54.68062500
438 2 78.98312500 78.98312500 66.83187500
439 2 78.98312500 78.98312500 78.98312500
440 2 78.98312500 78.98312500 91.13437500
441 2 78.98312500 91.13437500 6.07562500
442 2 78.98312500 91.13437500 18.22687500
443 2 78.98312500 91.13437500 30.37812500
444 2 78.98312500 91.13437500 42.52937500
445 2 78.98312500 91.13437500 54.68062500
446 2 78.98312500 91.13437500 66.83187500
447 2 78.98312500 91.13437500 78.98312500
448 2 78.98312500 91.13437500 91.13437500
449 2 91.13437500 6.07562500 6.07562500
450 2 91.13437500 6.07562500 18.22687500
451 2 91.13437500 6.07562500 30.37812500
452 2 91.13437500 6.07562500 42.52937500
453 2 91.13437500 6.07562500 54.68062500
454 2 91.13437500 6.07562500 66.83187500
455 2 91.13437500 6.07562500 78.98312500
456 2 91.13437500 6.07562500 91.13437500
457 2 91.13437500 18.22687500 6.07562500
458 2 91.13437500 18.22687500 18.22687500
459 2 91.13437500 18.22687500 30.37812500
460 2 91.13437500 18.22687500 42.52937500
461 2 91.13437500 18.22687500 54.68062500
462 2 91.13437500 18.22687500 66.83187500
463 2 91.13437500 18.22687500 78.98312500
464 2 91.13437500 18.22687500 91.13437500
465 2 91.13437500 30.37812500 6.07562500
466 2 91.13437500 30.37812500 18.22687500
467 2 91.13437500 30.37812500 30.37812500
468 2 91.13437500 30.37812500 42.52937500
469 2 91.13437500 30.37812500 54.68062500
470 2 91.13437500 30.37812500 66.83187500
471 2 91.13437500 30.37812500 78.98312500
472 2 91.13437500 30.37812500 91.13437500
473 2 91.13437500 42.52937500 6.07562500
474 2 91.13437500 42.52937500 18.22687500
475 2 91.13437500 42.52937500 30.37812500
476 2 91.13437500 42.52937500 42.52937500
477 2 91.13437500 42.52937500 54.68062500
478 2 91.13437500 42.52937500 66.83187500
479 2 91.13437500 42.52937500 78.98312500
480 2 91.13437500 42.52937500 91.13437500
481 2 91.13437500 54.68062500 6.07562500
482 2 91.13437500 54.68062500 18.22687500
483 2 91.13437500 54.68062500 30.37812500
484 2 91.13437500 54.68062500 42.52937500
485 2 91.13437500 54.68062500 54.68062500
486 2 91.13437500 54.68062500 66.83187500
487 2 91.13437500 54.68062500 78.98312500
488 2 91.13437500 54.68062500 91.13437500
489 2 91.13437500 66.83187500 6.07562500
490 2 91.13437500 66.83187500 18.22687500
491 2 91.13437500 66.83187500 30.37812500
492 2 91.13437500 66.83187500 42.52937500
493 2 91.13437500 66.83187500 54.68062500
494 2 91.13437500 66.83187500 66.83187500
495 2 91.13437500 66.83187500 78.98312500
496 2 91.13437500 66.83187500 91.13437500
497 2 91.13437500 78.98312500 6.07562500
498 2 91.13437500 78.98312500 18.22687500
499 2 91.13437500 78.98312500 30.37812500
500 2 91.13437500 78.98312500 42.52937500
501 2 91.13437500 78.98312500 54.68062500
502 2 91.13437500 78.98312500 66.83187500
503 2 91.13437500 78.98312500 78.98312500
504 2 91.13437500 78.98312500 91.13437500
505 2 91.13437500 91.13437500 6.07562500
506 2 91.13437500 91.13437500 18.22687500
507 2 91.13437500 91.13437500 30.37812500
508 2 91.13437500 91.13437500 42.52937500
509 2 91.13437500 91.13437500 54.68062500
510 2 91.13437500 91.13437500 66.83187500
511 2 91.13437500 91.13437500 78.98312500
512 2 91.13437500 91.13437500 91.13437500
