LAMMPS (28 Mar 2023 - Update 1)
units lj
dimension 3
atom_style atomic
boundary p p p

read_data indata.in
Reading data file ...
  orthogonal box = (0 0 0) to (41.7743 41.7743 41.7743)
  1 by 1 by 1 MPI processor grid
  reading atoms ...
  5832 atoms
  read_data CPU = 0.015 seconds

pair_style ring/cg 20.0
pair_coeff 1 1 0.66137 3.70835 1.65043 5.97298 1.04549 5.99383
pair_coeff 1 2 1.85398225 -0.57551401 5.54223696 1.72481501 2.46254749 5.32023192
pair_coeff 2 2 2.65724733 0.96180336 1.63649287 2.28247361 2.29616516 2.88817213

fix mynve all nve
fix mylgv all langevin 1.0 1.0 100 12345

dump myltr all custom 10000 dump.lammpstrj id type xs ys zs ix iy iz
dump_modify myltr sort id format line "%d %d %.5f %.5f %.5f %d %d %d"

write_restart restart.re
System init for write_restart ...
Generated 0 of 1 mixed pair_coeff terms from geometric mixing rule
Neighbor list info ...
  update: every = 1 steps, delay = 0 steps, check = yes
  max neighbors/atom: 2000, page size: 100000
  master list distance cutoff = 20.3
  ghost atom cutoff = 20.3
  binsize = 10.15, bins = 5 5 5
  1 neighbor lists, perpetual/occasional/extra = 1 0 0
  (1) pair ring/cg, perpetual
      attributes: half, newton on
      pair build: half/bin/atomonly/newton
      stencil: half/bin/3d
      bin: standard
timestep 0.01
run 10000000
Generated 0 of 1 mixed pair_coeff terms from geometric mixing rule
Per MPI rank memory allocation (min/avg/max) = 43.71 | 43.71 | 43.71 Mbytes
   Step          Temp          E_pair         E_mol          TotEng         Press     
         0   0              233.26651      0              233.26651      18.794373    
ERROR on proc 0: Neighbor list overflow, boost neigh_modify one (../npair_half_bin_atomonly_newton.cpp:109)
Last command: run 10000000
