LAMMPS Simulation Data
512 atoms
2 atom types

0 63.5 xlo xhi 
0 63.5 ylo yhi 
0 63.5 zlo zhi 

Masses

1 1.0
2 1.0

Atoms

1 1 3.96875000 3.96875000 3.96875000
2 1 3.96875000 3.96875000 11.90625000
3 1 3.96875000 3.96875000 19.84375000
4 1 3.96875000 3.96875000 27.78125000
5 1 3.96875000 3.96875000 35.71875000
6 1 3.96875000 3.96875000 43.65625000
7 1 3.96875000 3.96875000 51.59375000
8 1 3.96875000 3.96875000 59.53125000
9 1 3.96875000 11.90625000 3.96875000
10 1 3.96875000 11.90625000 11.90625000
11 1 3.96875000 11.90625000 19.84375000
12 1 3.96875000 11.90625000 27.78125000
13 1 3.96875000 11.90625000 35.71875000
14 1 3.96875000 11.90625000 43.65625000
15 1 3.96875000 11.90625000 51.59375000
16 1 3.96875000 11.90625000 59.53125000
17 1 3.96875000 19.84375000 3.96875000
18 1 3.96875000 19.84375000 11.90625000
19 1 3.96875000 19.84375000 19.84375000
20 1 3.96875000 19.84375000 27.78125000
21 1 3.96875000 19.84375000 35.71875000
22 1 3.96875000 19.84375000 43.65625000
23 1 3.96875000 19.84375000 51.59375000
24 1 3.96875000 19.84375000 59.53125000
25 1 3.96875000 27.78125000 3.96875000
26 1 3.96875000 27.78125000 11.90625000
27 1 3.96875000 27.78125000 19.84375000
28 1 3.96875000 27.78125000 27.78125000
29 1 3.96875000 27.78125000 35.71875000
30 1 3.96875000 27.78125000 43.65625000
31 1 3.96875000 27.78125000 51.59375000
32 1 3.96875000 27.78125000 59.53125000
33 1 3.96875000 35.71875000 3.96875000
34 1 3.96875000 35.71875000 11.90625000
35 1 3.96875000 35.71875000 19.84375000
36 1 3.96875000 35.71875000 27.78125000
37 1 3.96875000 35.71875000 35.71875000
38 1 3.96875000 35.71875000 43.65625000
39 1 3.96875000 35.71875000 51.59375000
40 1 3.96875000 35.71875000 59.53125000
41 1 3.96875000 43.65625000 3.96875000
42 1 3.96875000 43.65625000 11.90625000
43 1 3.96875000 43.65625000 19.84375000
44 1 3.96875000 43.65625000 27.78125000
45 1 3.96875000 43.65625000 35.71875000
46 1 3.96875000 43.65625000 43.65625000
47 1 3.96875000 43.65625000 51.59375000
48 1 3.96875000 43.65625000 59.53125000
49 1 3.96875000 51.59375000 3.96875000
50 1 3.96875000 51.59375000 11.90625000
51 1 3.96875000 51.59375000 19.84375000
52 1 3.96875000 51.59375000 27.78125000
53 1 3.96875000 51.59375000 35.71875000
54 1 3.96875000 51.59375000 43.65625000
55 1 3.96875000 51.59375000 51.59375000
56 1 3.96875000 51.59375000 59.53125000
57 1 3.96875000 59.53125000 3.96875000
58 1 3.96875000 59.53125000 11.90625000
59 1 3.96875000 59.53125000 19.84375000
60 1 3.96875000 59.53125000 27.78125000
61 1 3.96875000 59.53125000 35.71875000
62 1 3.96875000 59.53125000 43.65625000
63 1 3.96875000 59.53125000 51.59375000
64 1 3.96875000 59.53125000 59.53125000
65 1 11.90625000 3.96875000 3.96875000
66 1 11.90625000 3.96875000 11.90625000
67 1 11.90625000 3.96875000 19.84375000
68 1 11.90625000 3.96875000 27.78125000
69 1 11.90625000 3.96875000 35.71875000
70 1 11.90625000 3.96875000 43.65625000
71 1 11.90625000 3.96875000 51.59375000
72 1 11.90625000 3.96875000 59.53125000
73 1 11.90625000 11.90625000 3.96875000
74 1 11.90625000 11.90625000 11.90625000
75 1 11.90625000 11.90625000 19.84375000
76 1 11.90625000 11.90625000 27.78125000
77 1 11.90625000 11.90625000 35.71875000
78 1 11.90625000 11.90625000 43.65625000
79 1 11.90625000 11.90625000 51.59375000
80 1 11.90625000 11.90625000 59.53125000
81 1 11.90625000 19.84375000 3.96875000
82 1 11.90625000 19.84375000 11.90625000
83 1 11.90625000 19.84375000 19.84375000
84 1 11.90625000 19.84375000 27.78125000
85 1 11.90625000 19.84375000 35.71875000
86 1 11.90625000 19.84375000 43.65625000
87 1 11.90625000 19.84375000 51.59375000
88 1 11.90625000 19.84375000 59.53125000
89 1 11.90625000 27.78125000 3.96875000
90 1 11.90625000 27.78125000 11.90625000
91 1 11.90625000 27.78125000 19.84375000
92 1 11.90625000 27.78125000 27.78125000
93 1 11.90625000 27.78125000 35.71875000
94 1 11.90625000 27.78125000 43.65625000
95 1 11.90625000 27.78125000 51.59375000
96 1 11.90625000 27.78125000 59.53125000
97 1 11.90625000 35.71875000 3.96875000
98 1 11.90625000 35.71875000 11.90625000
99 1 11.90625000 35.71875000 19.84375000
100 1 11.90625000 35.71875000 27.78125000
101 1 11.90625000 35.71875000 35.71875000
102 1 11.90625000 35.71875000 43.65625000
103 1 11.90625000 35.71875000 51.59375000
104 1 11.90625000 35.71875000 59.53125000
105 1 11.90625000 43.65625000 3.96875000
106 1 11.90625000 43.65625000 11.90625000
107 1 11.90625000 43.65625000 19.84375000
108 1 11.90625000 43.65625000 27.78125000
109 1 11.90625000 43.65625000 35.71875000
110 1 11.90625000 43.65625000 43.65625000
111 1 11.90625000 43.65625000 51.59375000
112 1 11.90625000 43.65625000 59.53125000
113 1 11.90625000 51.59375000 3.96875000
114 1 11.90625000 51.59375000 11.90625000
115 1 11.90625000 51.59375000 19.84375000
116 1 11.90625000 51.59375000 27.78125000
117 1 11.90625000 51.59375000 35.71875000
118 1 11.90625000 51.59375000 43.65625000
119 1 11.90625000 51.59375000 51.59375000
120 1 11.90625000 51.59375000 59.53125000
121 1 11.90625000 59.53125000 3.96875000
122 1 11.90625000 59.53125000 11.90625000
123 1 11.90625000 59.53125000 19.84375000
124 1 11.90625000 59.53125000 27.78125000
125 1 11.90625000 59.53125000 35.71875000
126 1 11.90625000 59.53125000 43.65625000
127 1 11.90625000 59.53125000 51.59375000
128 1 11.90625000 59.53125000 59.53125000
129 1 19.84375000 3.96875000 3.96875000
130 1 19.84375000 3.96875000 11.90625000
131 1 19.84375000 3.96875000 19.84375000
132 1 19.84375000 3.96875000 27.78125000
133 1 19.84375000 3.96875000 35.71875000
134 1 19.84375000 3.96875000 43.65625000
135 1 19.84375000 3.96875000 51.59375000
136 1 19.84375000 3.96875000 59.53125000
137 1 19.84375000 11.90625000 3.96875000
138 1 19.84375000 11.90625000 11.90625000
139 1 19.84375000 11.90625000 19.84375000
140 1 19.84375000 11.90625000 27.78125000
141 1 19.84375000 11.90625000 35.71875000
142 1 19.84375000 11.90625000 43.65625000
143 1 19.84375000 11.90625000 51.59375000
144 1 19.84375000 11.90625000 59.53125000
145 1 19.84375000 19.84375000 3.96875000
146 1 19.84375000 19.84375000 11.90625000
147 1 19.84375000 19.84375000 19.84375000
148 1 19.84375000 19.84375000 27.78125000
149 1 19.84375000 19.84375000 35.71875000
150 1 19.84375000 19.84375000 43.65625000
151 1 19.84375000 19.84375000 51.59375000
152 1 19.84375000 19.84375000 59.53125000
153 1 19.84375000 27.78125000 3.96875000
154 1 19.84375000 27.78125000 11.90625000
155 1 19.84375000 27.78125000 19.84375000
156 1 19.84375000 27.78125000 27.78125000
157 1 19.84375000 27.78125000 35.71875000
158 1 19.84375000 27.78125000 43.65625000
159 1 19.84375000 27.78125000 51.59375000
160 1 19.84375000 27.78125000 59.53125000
161 1 19.84375000 35.71875000 3.96875000
162 1 19.84375000 35.71875000 11.90625000
163 1 19.84375000 35.71875000 19.84375000
164 1 19.84375000 35.71875000 27.78125000
165 1 19.84375000 35.71875000 35.71875000
166 1 19.84375000 35.71875000 43.65625000
167 1 19.84375000 35.71875000 51.59375000
168 1 19.84375000 35.71875000 59.53125000
169 1 19.84375000 43.65625000 3.96875000
170 1 19.84375000 43.65625000 11.90625000
171 1 19.84375000 43.65625000 19.84375000
172 1 19.84375000 43.65625000 27.78125000
173 1 19.84375000 43.65625000 35.71875000
174 1 19.84375000 43.65625000 43.65625000
175 1 19.84375000 43.65625000 51.59375000
176 1 19.84375000 43.65625000 59.53125000
177 1 19.84375000 51.59375000 3.96875000
178 1 19.84375000 51.59375000 11.90625000
179 1 19.84375000 51.59375000 19.84375000
180 1 19.84375000 51.59375000 27.78125000
181 1 19.84375000 51.59375000 35.71875000
182 1 19.84375000 51.59375000 43.65625000
183 1 19.84375000 51.59375000 51.59375000
184 1 19.84375000 51.59375000 59.53125000
185 1 19.84375000 59.53125000 3.96875000
186 1 19.84375000 59.53125000 11.90625000
187 1 19.84375000 59.53125000 19.84375000
188 1 19.84375000 59.53125000 27.78125000
189 1 19.84375000 59.53125000 35.71875000
190 1 19.84375000 59.53125000 43.65625000
191 1 19.84375000 59.53125000 51.59375000
192 1 19.84375000 59.53125000 59.53125000
193 1 27.78125000 3.96875000 3.96875000
194 1 27.78125000 3.96875000 11.90625000
195 1 27.78125000 3.96875000 19.84375000
196 1 27.78125000 3.96875000 27.78125000
197 1 27.78125000 3.96875000 35.71875000
198 1 27.78125000 3.96875000 43.65625000
199 1 27.78125000 3.96875000 51.59375000
200 1 27.78125000 3.96875000 59.53125000
201 1 27.78125000 11.90625000 3.96875000
202 1 27.78125000 11.90625000 11.90625000
203 1 27.78125000 11.90625000 19.84375000
204 1 27.78125000 11.90625000 27.78125000
205 1 27.78125000 11.90625000 35.71875000
206 1 27.78125000 11.90625000 43.65625000
207 1 27.78125000 11.90625000 51.59375000
208 1 27.78125000 11.90625000 59.53125000
209 1 27.78125000 19.84375000 3.96875000
210 1 27.78125000 19.84375000 11.90625000
211 1 27.78125000 19.84375000 19.84375000
212 1 27.78125000 19.84375000 27.78125000
213 1 27.78125000 19.84375000 35.71875000
214 1 27.78125000 19.84375000 43.65625000
215 1 27.78125000 19.84375000 51.59375000
216 1 27.78125000 19.84375000 59.53125000
217 1 27.78125000 27.78125000 3.96875000
218 1 27.78125000 27.78125000 11.90625000
219 1 27.78125000 27.78125000 19.84375000
220 1 27.78125000 27.78125000 27.78125000
221 1 27.78125000 27.78125000 35.71875000
222 1 27.78125000 27.78125000 43.65625000
223 1 27.78125000 27.78125000 51.59375000
224 1 27.78125000 27.78125000 59.53125000
225 1 27.78125000 35.71875000 3.96875000
226 1 27.78125000 35.71875000 11.90625000
227 1 27.78125000 35.71875000 19.84375000
228 1 27.78125000 35.71875000 27.78125000
229 1 27.78125000 35.71875000 35.71875000
230 1 27.78125000 35.71875000 43.65625000
231 1 27.78125000 35.71875000 51.59375000
232 1 27.78125000 35.71875000 59.53125000
233 1 27.78125000 43.65625000 3.96875000
234 1 27.78125000 43.65625000 11.90625000
235 1 27.78125000 43.65625000 19.84375000
236 1 27.78125000 43.65625000 27.78125000
237 1 27.78125000 43.65625000 35.71875000
238 1 27.78125000 43.65625000 43.65625000
239 1 27.78125000 43.65625000 51.59375000
240 1 27.78125000 43.65625000 59.53125000
241 1 27.78125000 51.59375000 3.96875000
242 1 27.78125000 51.59375000 11.90625000
243 1 27.78125000 51.59375000 19.84375000
244 1 27.78125000 51.59375000 27.78125000
245 1 27.78125000 51.59375000 35.71875000
246 1 27.78125000 51.59375000 43.65625000
247 1 27.78125000 51.59375000 51.59375000
248 1 27.78125000 51.59375000 59.53125000
249 1 27.78125000 59.53125000 3.96875000
250 1 27.78125000 59.53125000 11.90625000
251 1 27.78125000 59.53125000 19.84375000
252 1 27.78125000 59.53125000 27.78125000
253 1 27.78125000 59.53125000 35.71875000
254 1 27.78125000 59.53125000 43.65625000
255 1 27.78125000 59.53125000 51.59375000
256 1 27.78125000 59.53125000 59.53125000
257 2 35.71875000 3.96875000 3.96875000
258 2 35.71875000 3.96875000 11.90625000
259 2 35.71875000 3.96875000 19.84375000
260 2 35.71875000 3.96875000 27.78125000
261 2 35.71875000 3.96875000 35.71875000
262 2 35.71875000 3.96875000 43.65625000
263 2 35.71875000 3.96875000 51.59375000
264 2 35.71875000 3.96875000 59.53125000
265 2 35.71875000 11.90625000 3.96875000
266 2 35.71875000 11.90625000 11.90625000
267 2 35.71875000 11.90625000 19.84375000
268 2 35.71875000 11.90625000 27.78125000
269 2 35.71875000 11.90625000 35.71875000
270 2 35.71875000 11.90625000 43.65625000
271 2 35.71875000 11.90625000 51.59375000
272 2 35.71875000 11.90625000 59.53125000
273 2 35.71875000 19.84375000 3.96875000
274 2 35.71875000 19.84375000 11.90625000
275 2 35.71875000 19.84375000 19.84375000
276 2 35.71875000 19.84375000 27.78125000
277 2 35.71875000 19.84375000 35.71875000
278 2 35.71875000 19.84375000 43.65625000
279 2 35.71875000 19.84375000 51.59375000
280 2 35.71875000 19.84375000 59.53125000
281 2 35.71875000 27.78125000 3.96875000
282 2 35.71875000 27.78125000 11.90625000
283 2 35.71875000 27.78125000 19.84375000
284 2 35.71875000 27.78125000 27.78125000
285 2 35.71875000 27.78125000 35.71875000
286 2 35.71875000 27.78125000 43.65625000
287 2 35.71875000 27.78125000 51.59375000
288 2 35.71875000 27.78125000 59.53125000
289 2 35.71875000 35.71875000 3.96875000
290 2 35.71875000 35.71875000 11.90625000
291 2 35.71875000 35.71875000 19.84375000
292 2 35.71875000 35.71875000 27.78125000
293 2 35.71875000 35.71875000 35.71875000
294 2 35.71875000 35.71875000 43.65625000
295 2 35.71875000 35.71875000 51.59375000
296 2 35.71875000 35.71875000 59.53125000
297 2 35.71875000 43.65625000 3.96875000
298 2 35.71875000 43.65625000 11.90625000
299 2 35.71875000 43.65625000 19.84375000
300 2 35.71875000 43.65625000 27.78125000
301 2 35.71875000 43.65625000 35.71875000
302 2 35.71875000 43.65625000 43.65625000
303 2 35.71875000 43.65625000 51.59375000
304 2 35.71875000 43.65625000 59.53125000
305 2 35.71875000 51.59375000 3.96875000
306 2 35.71875000 51.59375000 11.90625000
307 2 35.71875000 51.59375000 19.84375000
308 2 35.71875000 51.59375000 27.78125000
309 2 35.71875000 51.59375000 35.71875000
310 2 35.71875000 51.59375000 43.65625000
311 2 35.71875000 51.59375000 51.59375000
312 2 35.71875000 51.59375000 59.53125000
313 2 35.71875000 59.53125000 3.96875000
314 2 35.71875000 59.53125000 11.90625000
315 2 35.71875000 59.53125000 19.84375000
316 2 35.71875000 59.53125000 27.78125000
317 2 35.71875000 59.53125000 35.71875000
318 2 35.71875000 59.53125000 43.65625000
319 2 35.71875000 59.53125000 51.59375000
320 2 35.71875000 59.53125000 59.53125000
321 2 43.65625000 3.96875000 3.96875000
322 2 43.65625000 3.96875000 11.90625000
323 2 43.65625000 3.96875000 19.84375000
324 2 43.65625000 3.96875000 27.78125000
325 2 43.65625000 3.96875000 35.71875000
326 2 43.65625000 3.96875000 43.65625000
327 2 43.65625000 3.96875000 51.59375000
328 2 43.65625000 3.96875000 59.53125000
329 2 43.65625000 11.90625000 3.96875000
330 2 43.65625000 11.90625000 11.90625000
331 2 43.65625000 11.90625000 19.84375000
332 2 43.65625000 11.90625000 27.78125000
333 2 43.65625000 11.90625000 35.71875000
334 2 43.65625000 11.90625000 43.65625000
335 2 43.65625000 11.90625000 51.59375000
336 2 43.65625000 11.90625000 59.53125000
337 2 43.65625000 19.84375000 3.96875000
338 2 43.65625000 19.84375000 11.90625000
339 2 43.65625000 19.84375000 19.84375000
340 2 43.65625000 19.84375000 27.78125000
341 2 43.65625000 19.84375000 35.71875000
342 2 43.65625000 19.84375000 43.65625000
343 2 43.65625000 19.84375000 51.59375000
344 2 43.65625000 19.84375000 59.53125000
345 2 43.65625000 27.78125000 3.96875000
346 2 43.65625000 27.78125000 11.90625000
347 2 43.65625000 27.78125000 19.84375000
348 2 43.65625000 27.78125000 27.78125000
349 2 43.65625000 27.78125000 35.71875000
350 2 43.65625000 27.78125000 43.65625000
351 2 43.65625000 27.78125000 51.59375000
352 2 43.65625000 27.78125000 59.53125000
353 2 43.65625000 35.71875000 3.96875000
354 2 43.65625000 35.71875000 11.90625000
355 2 43.65625000 35.71875000 19.84375000
356 2 43.65625000 35.71875000 27.78125000
357 2 43.65625000 35.71875000 35.71875000
358 2 43.65625000 35.71875000 43.65625000
359 2 43.65625000 35.71875000 51.59375000
360 2 43.65625000 35.71875000 59.53125000
361 2 43.65625000 43.65625000 3.96875000
362 2 43.65625000 43.65625000 11.90625000
363 2 43.65625000 43.65625000 19.84375000
364 2 43.65625000 43.65625000 27.78125000
365 2 43.65625000 43.65625000 35.71875000
366 2 43.65625000 43.65625000 43.65625000
367 2 43.65625000 43.65625000 51.59375000
368 2 43.65625000 43.65625000 59.53125000
369 2 43.65625000 51.59375000 3.96875000
370 2 43.65625000 51.59375000 11.90625000
371 2 43.65625000 51.59375000 19.84375000
372 2 43.65625000 51.59375000 27.78125000
373 2 43.65625000 51.59375000 35.71875000
374 2 43.65625000 51.59375000 43.65625000
375 2 43.65625000 51.59375000 51.59375000
376 2 43.65625000 51.59375000 59.53125000
377 2 43.65625000 59.53125000 3.96875000
378 2 43.65625000 59.53125000 11.90625000
379 2 43.65625000 59.53125000 19.84375000
380 2 43.65625000 59.53125000 27.78125000
381 2 43.65625000 59.53125000 35.71875000
382 2 43.65625000 59.53125000 43.65625000
383 2 43.65625000 59.53125000 51.59375000
384 2 43.65625000 59.53125000 59.53125000
385 2 51.59375000 3.96875000 3.96875000
386 2 51.59375000 3.96875000 11.90625000
387 2 51.59375000 3.96875000 19.84375000
388 2 51.59375000 3.96875000 27.78125000
389 2 51.59375000 3.96875000 35.71875000
390 2 51.59375000 3.96875000 43.65625000
391 2 51.59375000 3.96875000 51.59375000
392 2 51.59375000 3.96875000 59.53125000
393 2 51.59375000 11.90625000 3.96875000
394 2 51.59375000 11.90625000 11.90625000
395 2 51.59375000 11.90625000 19.84375000
396 2 51.59375000 11.90625000 27.78125000
397 2 51.59375000 11.90625000 35.71875000
398 2 51.59375000 11.90625000 43.65625000
399 2 51.59375000 11.90625000 51.59375000
400 2 51.59375000 11.90625000 59.53125000
401 2 51.59375000 19.84375000 3.96875000
402 2 51.59375000 19.84375000 11.90625000
403 2 51.59375000 19.84375000 19.84375000
404 2 51.59375000 19.84375000 27.78125000
405 2 51.59375000 19.84375000 35.71875000
406 2 51.59375000 19.84375000 43.65625000
407 2 51.59375000 19.84375000 51.59375000
408 2 51.59375000 19.84375000 59.53125000
409 2 51.59375000 27.78125000 3.96875000
410 2 51.59375000 27.78125000 11.90625000
411 2 51.59375000 27.78125000 19.84375000
412 2 51.59375000 27.78125000 27.78125000
413 2 51.59375000 27.78125000 35.71875000
414 2 51.59375000 27.78125000 43.65625000
415 2 51.59375000 27.78125000 51.59375000
416 2 51.59375000 27.78125000 59.53125000
417 2 51.59375000 35.71875000 3.96875000
418 2 51.59375000 35.71875000 11.90625000
419 2 51.59375000 35.71875000 19.84375000
420 2 51.59375000 35.71875000 27.78125000
421 2 51.59375000 35.71875000 35.71875000
422 2 51.59375000 35.71875000 43.65625000
423 2 51.59375000 35.71875000 51.59375000
424 2 51.59375000 35.71875000 59.53125000
425 2 51.59375000 43.65625000 3.96875000
426 2 51.59375000 43.65625000 11.90625000
427 2 51.59375000 43.65625000 19.84375000
428 2 51.59375000 43.65625000 27.78125000
429 2 51.59375000 43.65625000 35.71875000
430 2 51.59375000 43.65625000 43.65625000
431 2 51.59375000 43.65625000 51.59375000
432 2 51.59375000 43.65625000 59.53125000
433 2 51.59375000 51.59375000 3.96875000
434 2 51.59375000 51.59375000 11.90625000
435 2 51.59375000 51.59375000 19.84375000
436 2 51.59375000 51.59375000 27.78125000
437 2 51.59375000 51.59375000 35.71875000
438 2 51.59375000 51.59375000 43.65625000
439 2 51.59375000 51.59375000 51.59375000
440 2 51.59375000 51.59375000 59.53125000
441 2 51.59375000 59.53125000 3.96875000
442 2 51.59375000 59.53125000 11.90625000
443 2 51.59375000 59.53125000 19.84375000
444 2 51.59375000 59.53125000 27.78125000
445 2 51.59375000 59.53125000 35.71875000
446 2 51.59375000 59.53125000 43.65625000
447 2 51.59375000 59.53125000 51.59375000
448 2 51.59375000 59.53125000 59.53125000
449 2 59.53125000 3.96875000 3.96875000
450 2 59.53125000 3.96875000 11.90625000
451 2 59.53125000 3.96875000 19.84375000
452 2 59.53125000 3.96875000 27.78125000
453 2 59.53125000 3.96875000 35.71875000
454 2 59.53125000 3.96875000 43.65625000
455 2 59.53125000 3.96875000 51.59375000
456 2 59.53125000 3.96875000 59.53125000
457 2 59.53125000 11.90625000 3.96875000
458 2 59.53125000 11.90625000 11.90625000
459 2 59.53125000 11.90625000 19.84375000
460 2 59.53125000 11.90625000 27.78125000
461 2 59.53125000 11.90625000 35.71875000
462 2 59.53125000 11.90625000 43.65625000
463 2 59.53125000 11.90625000 51.59375000
464 2 59.53125000 11.90625000 59.53125000
465 2 59.53125000 19.84375000 3.96875000
466 2 59.53125000 19.84375000 11.90625000
467 2 59.53125000 19.84375000 19.84375000
468 2 59.53125000 19.84375000 27.78125000
469 2 59.53125000 19.84375000 35.71875000
470 2 59.53125000 19.84375000 43.65625000
471 2 59.53125000 19.84375000 51.59375000
472 2 59.53125000 19.84375000 59.53125000
473 2 59.53125000 27.78125000 3.96875000
474 2 59.53125000 27.78125000 11.90625000
475 2 59.53125000 27.78125000 19.84375000
476 2 59.53125000 27.78125000 27.78125000
477 2 59.53125000 27.78125000 35.71875000
478 2 59.53125000 27.78125000 43.65625000
479 2 59.53125000 27.78125000 51.59375000
480 2 59.53125000 27.78125000 59.53125000
481 2 59.53125000 35.71875000 3.96875000
482 2 59.53125000 35.71875000 11.90625000
483 2 59.53125000 35.71875000 19.84375000
484 2 59.53125000 35.71875000 27.78125000
485 2 59.53125000 35.71875000 35.71875000
486 2 59.53125000 35.71875000 43.65625000
487 2 59.53125000 35.71875000 51.59375000
488 2 59.53125000 35.71875000 59.53125000
489 2 59.53125000 43.65625000 3.96875000
490 2 59.53125000 43.65625000 11.90625000
491 2 59.53125000 43.65625000 19.84375000
492 2 59.53125000 43.65625000 27.78125000
493 2 59.53125000 43.65625000 35.71875000
494 2 59.53125000 43.65625000 43.65625000
495 2 59.53125000 43.65625000 51.59375000
496 2 59.53125000 43.65625000 59.53125000
497 2 59.53125000 51.59375000 3.96875000
498 2 59.53125000 51.59375000 11.90625000
499 2 59.53125000 51.59375000 19.84375000
500 2 59.53125000 51.59375000 27.78125000
501 2 59.53125000 51.59375000 35.71875000
502 2 59.53125000 51.59375000 43.65625000
503 2 59.53125000 51.59375000 51.59375000
504 2 59.53125000 51.59375000 59.53125000
505 2 59.53125000 59.53125000 3.96875000
506 2 59.53125000 59.53125000 11.90625000
507 2 59.53125000 59.53125000 19.84375000
508 2 59.53125000 59.53125000 27.78125000
509 2 59.53125000 59.53125000 35.71875000
510 2 59.53125000 59.53125000 43.65625000
511 2 59.53125000 59.53125000 51.59375000
512 2 59.53125000 59.53125000 59.53125000
