LAMMPS Simulation Data
500 atoms
1 atom types

0 17.09975946676697 xlo xhi 
0 17.09975946676697 ylo yhi 
0 17.09975946676697 zlo zhi 

Masses

1 1.0

Atoms

1 1 1.06873497 1.06873497 1.06873497
2 1 1.06873497 1.06873497 3.20620490
3 1 1.06873497 1.06873497 5.34367483
4 1 1.06873497 1.06873497 7.48114477
5 1 1.06873497 1.06873497 9.61861470
6 1 1.06873497 1.06873497 11.75608463
7 1 1.06873497 1.06873497 13.89355457
8 1 1.06873497 1.06873497 16.03102450
9 1 1.06873497 3.20620490 1.06873497
10 1 1.06873497 3.20620490 3.20620490
11 1 1.06873497 3.20620490 5.34367483
12 1 1.06873497 3.20620490 7.48114477
13 1 1.06873497 3.20620490 9.61861470
14 1 1.06873497 3.20620490 11.75608463
15 1 1.06873497 3.20620490 13.89355457
16 1 1.06873497 3.20620490 16.03102450
17 1 1.06873497 5.34367483 1.06873497
18 1 1.06873497 5.34367483 3.20620490
19 1 1.06873497 5.34367483 5.34367483
20 1 1.06873497 5.34367483 7.48114477
21 1 1.06873497 5.34367483 9.61861470
22 1 1.06873497 5.34367483 11.75608463
23 1 1.06873497 5.34367483 13.89355457
24 1 1.06873497 5.34367483 16.03102450
25 1 1.06873497 7.48114477 1.06873497
26 1 1.06873497 7.48114477 3.20620490
27 1 1.06873497 7.48114477 5.34367483
28 1 1.06873497 7.48114477 7.48114477
29 1 1.06873497 7.48114477 9.61861470
30 1 1.06873497 7.48114477 11.75608463
31 1 1.06873497 7.48114477 13.89355457
32 1 1.06873497 7.48114477 16.03102450
33 1 1.06873497 9.61861470 1.06873497
34 1 1.06873497 9.61861470 3.20620490
35 1 1.06873497 9.61861470 5.34367483
36 1 1.06873497 9.61861470 7.48114477
37 1 1.06873497 9.61861470 9.61861470
38 1 1.06873497 9.61861470 11.75608463
39 1 1.06873497 9.61861470 13.89355457
40 1 1.06873497 9.61861470 16.03102450
41 1 1.06873497 11.75608463 1.06873497
42 1 1.06873497 11.75608463 3.20620490
43 1 1.06873497 11.75608463 5.34367483
44 1 1.06873497 11.75608463 7.48114477
45 1 1.06873497 11.75608463 9.61861470
46 1 1.06873497 11.75608463 11.75608463
47 1 1.06873497 11.75608463 13.89355457
48 1 1.06873497 11.75608463 16.03102450
49 1 1.06873497 13.89355457 1.06873497
50 1 1.06873497 13.89355457 3.20620490
51 1 1.06873497 13.89355457 5.34367483
52 1 1.06873497 13.89355457 7.48114477
53 1 1.06873497 13.89355457 9.61861470
54 1 1.06873497 13.89355457 11.75608463
55 1 1.06873497 13.89355457 13.89355457
56 1 1.06873497 13.89355457 16.03102450
57 1 1.06873497 16.03102450 1.06873497
58 1 1.06873497 16.03102450 3.20620490
59 1 1.06873497 16.03102450 5.34367483
60 1 1.06873497 16.03102450 7.48114477
61 1 1.06873497 16.03102450 9.61861470
62 1 1.06873497 16.03102450 11.75608463
63 1 1.06873497 16.03102450 13.89355457
64 1 1.06873497 16.03102450 16.03102450
65 1 3.20620490 1.06873497 1.06873497
66 1 3.20620490 1.06873497 3.20620490
67 1 3.20620490 1.06873497 5.34367483
68 1 3.20620490 1.06873497 7.48114477
69 1 3.20620490 1.06873497 9.61861470
70 1 3.20620490 1.06873497 11.75608463
71 1 3.20620490 1.06873497 13.89355457
72 1 3.20620490 1.06873497 16.03102450
73 1 3.20620490 3.20620490 1.06873497
74 1 3.20620490 3.20620490 3.20620490
75 1 3.20620490 3.20620490 5.34367483
76 1 3.20620490 3.20620490 7.48114477
77 1 3.20620490 3.20620490 9.61861470
78 1 3.20620490 3.20620490 11.75608463
79 1 3.20620490 3.20620490 13.89355457
80 1 3.20620490 3.20620490 16.03102450
81 1 3.20620490 5.34367483 1.06873497
82 1 3.20620490 5.34367483 3.20620490
83 1 3.20620490 5.34367483 5.34367483
84 1 3.20620490 5.34367483 7.48114477
85 1 3.20620490 5.34367483 9.61861470
86 1 3.20620490 5.34367483 11.75608463
87 1 3.20620490 5.34367483 13.89355457
88 1 3.20620490 5.34367483 16.03102450
89 1 3.20620490 7.48114477 1.06873497
90 1 3.20620490 7.48114477 3.20620490
91 1 3.20620490 7.48114477 5.34367483
92 1 3.20620490 7.48114477 7.48114477
93 1 3.20620490 7.48114477 9.61861470
94 1 3.20620490 7.48114477 11.75608463
95 1 3.20620490 7.48114477 13.89355457
96 1 3.20620490 7.48114477 16.03102450
97 1 3.20620490 9.61861470 1.06873497
98 1 3.20620490 9.61861470 3.20620490
99 1 3.20620490 9.61861470 5.34367483
100 1 3.20620490 9.61861470 7.48114477
101 1 3.20620490 9.61861470 9.61861470
102 1 3.20620490 9.61861470 11.75608463
103 1 3.20620490 9.61861470 13.89355457
104 1 3.20620490 9.61861470 16.03102450
105 1 3.20620490 11.75608463 1.06873497
106 1 3.20620490 11.75608463 3.20620490
107 1 3.20620490 11.75608463 5.34367483
108 1 3.20620490 11.75608463 7.48114477
109 1 3.20620490 11.75608463 9.61861470
110 1 3.20620490 11.75608463 11.75608463
111 1 3.20620490 11.75608463 13.89355457
112 1 3.20620490 11.75608463 16.03102450
113 1 3.20620490 13.89355457 1.06873497
114 1 3.20620490 13.89355457 3.20620490
115 1 3.20620490 13.89355457 5.34367483
116 1 3.20620490 13.89355457 7.48114477
117 1 3.20620490 13.89355457 9.61861470
118 1 3.20620490 13.89355457 11.75608463
119 1 3.20620490 13.89355457 13.89355457
120 1 3.20620490 13.89355457 16.03102450
121 1 3.20620490 16.03102450 1.06873497
122 1 3.20620490 16.03102450 3.20620490
123 1 3.20620490 16.03102450 5.34367483
124 1 3.20620490 16.03102450 7.48114477
125 1 3.20620490 16.03102450 9.61861470
126 1 3.20620490 16.03102450 11.75608463
127 1 3.20620490 16.03102450 13.89355457
128 1 3.20620490 16.03102450 16.03102450
129 1 5.34367483 1.06873497 1.06873497
130 1 5.34367483 1.06873497 3.20620490
131 1 5.34367483 1.06873497 5.34367483
132 1 5.34367483 1.06873497 7.48114477
133 1 5.34367483 1.06873497 9.61861470
134 1 5.34367483 1.06873497 11.75608463
135 1 5.34367483 1.06873497 13.89355457
136 1 5.34367483 1.06873497 16.03102450
137 1 5.34367483 3.20620490 1.06873497
138 1 5.34367483 3.20620490 3.20620490
139 1 5.34367483 3.20620490 5.34367483
140 1 5.34367483 3.20620490 7.48114477
141 1 5.34367483 3.20620490 9.61861470
142 1 5.34367483 3.20620490 11.75608463
143 1 5.34367483 3.20620490 13.89355457
144 1 5.34367483 3.20620490 16.03102450
145 1 5.34367483 5.34367483 1.06873497
146 1 5.34367483 5.34367483 3.20620490
147 1 5.34367483 5.34367483 5.34367483
148 1 5.34367483 5.34367483 7.48114477
149 1 5.34367483 5.34367483 9.61861470
150 1 5.34367483 5.34367483 11.75608463
151 1 5.34367483 5.34367483 13.89355457
152 1 5.34367483 5.34367483 16.03102450
153 1 5.34367483 7.48114477 1.06873497
154 1 5.34367483 7.48114477 3.20620490
155 1 5.34367483 7.48114477 5.34367483
156 1 5.34367483 7.48114477 7.48114477
157 1 5.34367483 7.48114477 9.61861470
158 1 5.34367483 7.48114477 11.75608463
159 1 5.34367483 7.48114477 13.89355457
160 1 5.34367483 7.48114477 16.03102450
161 1 5.34367483 9.61861470 1.06873497
162 1 5.34367483 9.61861470 3.20620490
163 1 5.34367483 9.61861470 5.34367483
164 1 5.34367483 9.61861470 7.48114477
165 1 5.34367483 9.61861470 9.61861470
166 1 5.34367483 9.61861470 11.75608463
167 1 5.34367483 9.61861470 13.89355457
168 1 5.34367483 9.61861470 16.03102450
169 1 5.34367483 11.75608463 1.06873497
170 1 5.34367483 11.75608463 3.20620490
171 1 5.34367483 11.75608463 5.34367483
172 1 5.34367483 11.75608463 7.48114477
173 1 5.34367483 11.75608463 9.61861470
174 1 5.34367483 11.75608463 11.75608463
175 1 5.34367483 11.75608463 13.89355457
176 1 5.34367483 11.75608463 16.03102450
177 1 5.34367483 13.89355457 1.06873497
178 1 5.34367483 13.89355457 3.20620490
179 1 5.34367483 13.89355457 5.34367483
180 1 5.34367483 13.89355457 7.48114477
181 1 5.34367483 13.89355457 9.61861470
182 1 5.34367483 13.89355457 11.75608463
183 1 5.34367483 13.89355457 13.89355457
184 1 5.34367483 13.89355457 16.03102450
185 1 5.34367483 16.03102450 1.06873497
186 1 5.34367483 16.03102450 3.20620490
187 1 5.34367483 16.03102450 5.34367483
188 1 5.34367483 16.03102450 7.48114477
189 1 5.34367483 16.03102450 9.61861470
190 1 5.34367483 16.03102450 11.75608463
191 1 5.34367483 16.03102450 13.89355457
192 1 5.34367483 16.03102450 16.03102450
193 1 7.48114477 1.06873497 1.06873497
194 1 7.48114477 1.06873497 3.20620490
195 1 7.48114477 1.06873497 5.34367483
196 1 7.48114477 1.06873497 7.48114477
197 1 7.48114477 1.06873497 9.61861470
198 1 7.48114477 1.06873497 11.75608463
199 1 7.48114477 1.06873497 13.89355457
200 1 7.48114477 1.06873497 16.03102450
201 1 7.48114477 3.20620490 1.06873497
202 1 7.48114477 3.20620490 3.20620490
203 1 7.48114477 3.20620490 5.34367483
204 1 7.48114477 3.20620490 7.48114477
205 1 7.48114477 3.20620490 9.61861470
206 1 7.48114477 3.20620490 11.75608463
207 1 7.48114477 3.20620490 13.89355457
208 1 7.48114477 3.20620490 16.03102450
209 1 7.48114477 5.34367483 1.06873497
210 1 7.48114477 5.34367483 3.20620490
211 1 7.48114477 5.34367483 5.34367483
212 1 7.48114477 5.34367483 7.48114477
213 1 7.48114477 5.34367483 9.61861470
214 1 7.48114477 5.34367483 11.75608463
215 1 7.48114477 5.34367483 13.89355457
216 1 7.48114477 5.34367483 16.03102450
217 1 7.48114477 7.48114477 1.06873497
218 1 7.48114477 7.48114477 3.20620490
219 1 7.48114477 7.48114477 5.34367483
220 1 7.48114477 7.48114477 7.48114477
221 1 7.48114477 7.48114477 9.61861470
222 1 7.48114477 7.48114477 11.75608463
223 1 7.48114477 7.48114477 13.89355457
224 1 7.48114477 7.48114477 16.03102450
225 1 7.48114477 9.61861470 1.06873497
226 1 7.48114477 9.61861470 3.20620490
227 1 7.48114477 9.61861470 5.34367483
228 1 7.48114477 9.61861470 7.48114477
229 1 7.48114477 9.61861470 9.61861470
230 1 7.48114477 9.61861470 11.75608463
231 1 7.48114477 9.61861470 13.89355457
232 1 7.48114477 9.61861470 16.03102450
233 1 7.48114477 11.75608463 1.06873497
234 1 7.48114477 11.75608463 3.20620490
235 1 7.48114477 11.75608463 5.34367483
236 1 7.48114477 11.75608463 7.48114477
237 1 7.48114477 11.75608463 9.61861470
238 1 7.48114477 11.75608463 11.75608463
239 1 7.48114477 11.75608463 13.89355457
240 1 7.48114477 11.75608463 16.03102450
241 1 7.48114477 13.89355457 1.06873497
242 1 7.48114477 13.89355457 3.20620490
243 1 7.48114477 13.89355457 5.34367483
244 1 7.48114477 13.89355457 7.48114477
245 1 7.48114477 13.89355457 9.61861470
246 1 7.48114477 13.89355457 11.75608463
247 1 7.48114477 13.89355457 13.89355457
248 1 7.48114477 13.89355457 16.03102450
249 1 7.48114477 16.03102450 1.06873497
250 1 7.48114477 16.03102450 3.20620490
251 1 7.48114477 16.03102450 5.34367483
252 1 7.48114477 16.03102450 7.48114477
253 1 7.48114477 16.03102450 9.61861470
254 1 7.48114477 16.03102450 11.75608463
255 1 7.48114477 16.03102450 13.89355457
256 1 7.48114477 16.03102450 16.03102450
257 1 9.61861470 1.06873497 1.06873497
258 1 9.61861470 1.06873497 3.20620490
259 1 9.61861470 1.06873497 5.34367483
260 1 9.61861470 1.06873497 7.48114477
261 1 9.61861470 1.06873497 9.61861470
262 1 9.61861470 1.06873497 11.75608463
263 1 9.61861470 1.06873497 13.89355457
264 1 9.61861470 1.06873497 16.03102450
265 1 9.61861470 3.20620490 1.06873497
266 1 9.61861470 3.20620490 3.20620490
267 1 9.61861470 3.20620490 5.34367483
268 1 9.61861470 3.20620490 7.48114477
269 1 9.61861470 3.20620490 9.61861470
270 1 9.61861470 3.20620490 11.75608463
271 1 9.61861470 3.20620490 13.89355457
272 1 9.61861470 3.20620490 16.03102450
273 1 9.61861470 5.34367483 1.06873497
274 1 9.61861470 5.34367483 3.20620490
275 1 9.61861470 5.34367483 5.34367483
276 1 9.61861470 5.34367483 7.48114477
277 1 9.61861470 5.34367483 9.61861470
278 1 9.61861470 5.34367483 11.75608463
279 1 9.61861470 5.34367483 13.89355457
280 1 9.61861470 5.34367483 16.03102450
281 1 9.61861470 7.48114477 1.06873497
282 1 9.61861470 7.48114477 3.20620490
283 1 9.61861470 7.48114477 5.34367483
284 1 9.61861470 7.48114477 7.48114477
285 1 9.61861470 7.48114477 9.61861470
286 1 9.61861470 7.48114477 11.75608463
287 1 9.61861470 7.48114477 13.89355457
288 1 9.61861470 7.48114477 16.03102450
289 1 9.61861470 9.61861470 1.06873497
290 1 9.61861470 9.61861470 3.20620490
291 1 9.61861470 9.61861470 5.34367483
292 1 9.61861470 9.61861470 7.48114477
293 1 9.61861470 9.61861470 9.61861470
294 1 9.61861470 9.61861470 11.75608463
295 1 9.61861470 9.61861470 13.89355457
296 1 9.61861470 9.61861470 16.03102450
297 1 9.61861470 11.75608463 1.06873497
298 1 9.61861470 11.75608463 3.20620490
299 1 9.61861470 11.75608463 5.34367483
300 1 9.61861470 11.75608463 7.48114477
301 1 9.61861470 11.75608463 9.61861470
302 1 9.61861470 11.75608463 11.75608463
303 1 9.61861470 11.75608463 13.89355457
304 1 9.61861470 11.75608463 16.03102450
305 1 9.61861470 13.89355457 1.06873497
306 1 9.61861470 13.89355457 3.20620490
307 1 9.61861470 13.89355457 5.34367483
308 1 9.61861470 13.89355457 7.48114477
309 1 9.61861470 13.89355457 9.61861470
310 1 9.61861470 13.89355457 11.75608463
311 1 9.61861470 13.89355457 13.89355457
312 1 9.61861470 13.89355457 16.03102450
313 1 9.61861470 16.03102450 1.06873497
314 1 9.61861470 16.03102450 3.20620490
315 1 9.61861470 16.03102450 5.34367483
316 1 9.61861470 16.03102450 7.48114477
317 1 9.61861470 16.03102450 9.61861470
318 1 9.61861470 16.03102450 11.75608463
319 1 9.61861470 16.03102450 13.89355457
320 1 9.61861470 16.03102450 16.03102450
321 1 11.75608463 1.06873497 1.06873497
322 1 11.75608463 1.06873497 3.20620490
323 1 11.75608463 1.06873497 5.34367483
324 1 11.75608463 1.06873497 7.48114477
325 1 11.75608463 1.06873497 9.61861470
326 1 11.75608463 1.06873497 11.75608463
327 1 11.75608463 1.06873497 13.89355457
328 1 11.75608463 1.06873497 16.03102450
329 1 11.75608463 3.20620490 1.06873497
330 1 11.75608463 3.20620490 3.20620490
331 1 11.75608463 3.20620490 5.34367483
332 1 11.75608463 3.20620490 7.48114477
333 1 11.75608463 3.20620490 9.61861470
334 1 11.75608463 3.20620490 11.75608463
335 1 11.75608463 3.20620490 13.89355457
336 1 11.75608463 3.20620490 16.03102450
337 1 11.75608463 5.34367483 1.06873497
338 1 11.75608463 5.34367483 3.20620490
339 1 11.75608463 5.34367483 5.34367483
340 1 11.75608463 5.34367483 7.48114477
341 1 11.75608463 5.34367483 9.61861470
342 1 11.75608463 5.34367483 11.75608463
343 1 11.75608463 5.34367483 13.89355457
344 1 11.75608463 5.34367483 16.03102450
345 1 11.75608463 7.48114477 1.06873497
346 1 11.75608463 7.48114477 3.20620490
347 1 11.75608463 7.48114477 5.34367483
348 1 11.75608463 7.48114477 7.48114477
349 1 11.75608463 7.48114477 9.61861470
350 1 11.75608463 7.48114477 11.75608463
351 1 11.75608463 7.48114477 13.89355457
352 1 11.75608463 7.48114477 16.03102450
353 1 11.75608463 9.61861470 1.06873497
354 1 11.75608463 9.61861470 3.20620490
355 1 11.75608463 9.61861470 5.34367483
356 1 11.75608463 9.61861470 7.48114477
357 1 11.75608463 9.61861470 9.61861470
358 1 11.75608463 9.61861470 11.75608463
359 1 11.75608463 9.61861470 13.89355457
360 1 11.75608463 9.61861470 16.03102450
361 1 11.75608463 11.75608463 1.06873497
362 1 11.75608463 11.75608463 3.20620490
363 1 11.75608463 11.75608463 5.34367483
364 1 11.75608463 11.75608463 7.48114477
365 1 11.75608463 11.75608463 9.61861470
366 1 11.75608463 11.75608463 11.75608463
367 1 11.75608463 11.75608463 13.89355457
368 1 11.75608463 11.75608463 16.03102450
369 1 11.75608463 13.89355457 1.06873497
370 1 11.75608463 13.89355457 3.20620490
371 1 11.75608463 13.89355457 5.34367483
372 1 11.75608463 13.89355457 7.48114477
373 1 11.75608463 13.89355457 9.61861470
374 1 11.75608463 13.89355457 11.75608463
375 1 11.75608463 13.89355457 13.89355457
376 1 11.75608463 13.89355457 16.03102450
377 1 11.75608463 16.03102450 1.06873497
378 1 11.75608463 16.03102450 3.20620490
379 1 11.75608463 16.03102450 5.34367483
380 1 11.75608463 16.03102450 7.48114477
381 1 11.75608463 16.03102450 9.61861470
382 1 11.75608463 16.03102450 11.75608463
383 1 11.75608463 16.03102450 13.89355457
384 1 11.75608463 16.03102450 16.03102450
385 1 13.89355457 1.06873497 1.06873497
386 1 13.89355457 1.06873497 3.20620490
387 1 13.89355457 1.06873497 5.34367483
388 1 13.89355457 1.06873497 7.48114477
389 1 13.89355457 1.06873497 9.61861470
390 1 13.89355457 1.06873497 11.75608463
391 1 13.89355457 1.06873497 13.89355457
392 1 13.89355457 1.06873497 16.03102450
393 1 13.89355457 3.20620490 1.06873497
394 1 13.89355457 3.20620490 3.20620490
395 1 13.89355457 3.20620490 5.34367483
396 1 13.89355457 3.20620490 7.48114477
397 1 13.89355457 3.20620490 9.61861470
398 1 13.89355457 3.20620490 11.75608463
399 1 13.89355457 3.20620490 13.89355457
400 1 13.89355457 3.20620490 16.03102450
401 1 13.89355457 5.34367483 1.06873497
402 1 13.89355457 5.34367483 3.20620490
403 1 13.89355457 5.34367483 5.34367483
404 1 13.89355457 5.34367483 7.48114477
405 1 13.89355457 5.34367483 9.61861470
406 1 13.89355457 5.34367483 11.75608463
407 1 13.89355457 5.34367483 13.89355457
408 1 13.89355457 5.34367483 16.03102450
409 1 13.89355457 7.48114477 1.06873497
410 1 13.89355457 7.48114477 3.20620490
411 1 13.89355457 7.48114477 5.34367483
412 1 13.89355457 7.48114477 7.48114477
413 1 13.89355457 7.48114477 9.61861470
414 1 13.89355457 7.48114477 11.75608463
415 1 13.89355457 7.48114477 13.89355457
416 1 13.89355457 7.48114477 16.03102450
417 1 13.89355457 9.61861470 1.06873497
418 1 13.89355457 9.61861470 3.20620490
419 1 13.89355457 9.61861470 5.34367483
420 1 13.89355457 9.61861470 7.48114477
421 1 13.89355457 9.61861470 9.61861470
422 1 13.89355457 9.61861470 11.75608463
423 1 13.89355457 9.61861470 13.89355457
424 1 13.89355457 9.61861470 16.03102450
425 1 13.89355457 11.75608463 1.06873497
426 1 13.89355457 11.75608463 3.20620490
427 1 13.89355457 11.75608463 5.34367483
428 1 13.89355457 11.75608463 7.48114477
429 1 13.89355457 11.75608463 9.61861470
430 1 13.89355457 11.75608463 11.75608463
431 1 13.89355457 11.75608463 13.89355457
432 1 13.89355457 11.75608463 16.03102450
433 1 13.89355457 13.89355457 1.06873497
434 1 13.89355457 13.89355457 3.20620490
435 1 13.89355457 13.89355457 5.34367483
436 1 13.89355457 13.89355457 7.48114477
437 1 13.89355457 13.89355457 9.61861470
438 1 13.89355457 13.89355457 11.75608463
439 1 13.89355457 13.89355457 13.89355457
440 1 13.89355457 13.89355457 16.03102450
441 1 13.89355457 16.03102450 1.06873497
442 1 13.89355457 16.03102450 3.20620490
443 1 13.89355457 16.03102450 5.34367483
444 1 13.89355457 16.03102450 7.48114477
445 1 13.89355457 16.03102450 9.61861470
446 1 13.89355457 16.03102450 11.75608463
447 1 13.89355457 16.03102450 13.89355457
448 1 13.89355457 16.03102450 16.03102450
449 1 16.03102450 1.06873497 1.06873497
450 1 16.03102450 1.06873497 3.20620490
451 1 16.03102450 1.06873497 5.34367483
452 1 16.03102450 1.06873497 7.48114477
453 1 16.03102450 1.06873497 9.61861470
454 1 16.03102450 1.06873497 11.75608463
455 1 16.03102450 1.06873497 13.89355457
456 1 16.03102450 1.06873497 16.03102450
457 1 16.03102450 3.20620490 1.06873497
458 1 16.03102450 3.20620490 3.20620490
459 1 16.03102450 3.20620490 5.34367483
460 1 16.03102450 3.20620490 7.48114477
461 1 16.03102450 3.20620490 9.61861470
462 1 16.03102450 3.20620490 11.75608463
463 1 16.03102450 3.20620490 13.89355457
464 1 16.03102450 3.20620490 16.03102450
465 1 16.03102450 5.34367483 1.06873497
466 1 16.03102450 5.34367483 3.20620490
467 1 16.03102450 5.34367483 5.34367483
468 1 16.03102450 5.34367483 7.48114477
469 1 16.03102450 5.34367483 9.61861470
470 1 16.03102450 5.34367483 11.75608463
471 1 16.03102450 5.34367483 13.89355457
472 1 16.03102450 5.34367483 16.03102450
473 1 16.03102450 7.48114477 1.06873497
474 1 16.03102450 7.48114477 3.20620490
475 1 16.03102450 7.48114477 5.34367483
476 1 16.03102450 7.48114477 7.48114477
477 1 16.03102450 7.48114477 9.61861470
478 1 16.03102450 7.48114477 11.75608463
479 1 16.03102450 7.48114477 13.89355457
480 1 16.03102450 7.48114477 16.03102450
481 1 16.03102450 9.61861470 1.06873497
482 1 16.03102450 9.61861470 3.20620490
483 1 16.03102450 9.61861470 5.34367483
484 1 16.03102450 9.61861470 7.48114477
485 1 16.03102450 9.61861470 9.61861470
486 1 16.03102450 9.61861470 11.75608463
487 1 16.03102450 9.61861470 13.89355457
488 1 16.03102450 9.61861470 16.03102450
489 1 16.03102450 11.75608463 1.06873497
490 1 16.03102450 11.75608463 3.20620490
491 1 16.03102450 11.75608463 5.34367483
492 1 16.03102450 11.75608463 7.48114477
493 1 16.03102450 11.75608463 9.61861470
494 1 16.03102450 11.75608463 11.75608463
495 1 16.03102450 11.75608463 13.89355457
496 1 16.03102450 11.75608463 16.03102450
497 1 16.03102450 13.89355457 1.06873497
498 1 16.03102450 13.89355457 3.20620490
499 1 16.03102450 13.89355457 5.34367483
500 1 16.03102450 13.89355457 7.48114477
