LAMMPS Simulation Data
1332 atoms
1 atom types

0 41.98 xlo xhi 
0 41.98 ylo yhi 
0 41.98 zlo zhi 

Masses

1 1.0

Atoms

1 1 1.74916667 1.74916667 1.74916667
2 1 1.74916667 1.74916667 5.24750000
3 1 1.74916667 1.74916667 8.74583333
4 1 1.74916667 1.74916667 12.24416667
5 1 1.74916667 1.74916667 15.74250000
6 1 1.74916667 1.74916667 19.24083333
7 1 1.74916667 1.74916667 22.73916667
8 1 1.74916667 1.74916667 26.23750000
9 1 1.74916667 1.74916667 29.73583333
10 1 1.74916667 1.74916667 33.23416667
11 1 1.74916667 1.74916667 36.73250000
12 1 1.74916667 1.74916667 40.23083333
13 1 1.74916667 5.24750000 1.74916667
14 1 1.74916667 5.24750000 5.24750000
15 1 1.74916667 5.24750000 8.74583333
16 1 1.74916667 5.24750000 12.24416667
17 1 1.74916667 5.24750000 15.74250000
18 1 1.74916667 5.24750000 19.24083333
19 1 1.74916667 5.24750000 22.73916667
20 1 1.74916667 5.24750000 26.23750000
21 1 1.74916667 5.24750000 29.73583333
22 1 1.74916667 5.24750000 33.23416667
23 1 1.74916667 5.24750000 36.73250000
24 1 1.74916667 5.24750000 40.23083333
25 1 1.74916667 8.74583333 1.74916667
26 1 1.74916667 8.74583333 5.24750000
27 1 1.74916667 8.74583333 8.74583333
28 1 1.74916667 8.74583333 12.24416667
29 1 1.74916667 8.74583333 15.74250000
30 1 1.74916667 8.74583333 19.24083333
31 1 1.74916667 8.74583333 22.73916667
32 1 1.74916667 8.74583333 26.23750000
33 1 1.74916667 8.74583333 29.73583333
34 1 1.74916667 8.74583333 33.23416667
35 1 1.74916667 8.74583333 36.73250000
36 1 1.74916667 8.74583333 40.23083333
37 1 1.74916667 12.24416667 1.74916667
38 1 1.74916667 12.24416667 5.24750000
39 1 1.74916667 12.24416667 8.74583333
40 1 1.74916667 12.24416667 12.24416667
41 1 1.74916667 12.24416667 15.74250000
42 1 1.74916667 12.24416667 19.24083333
43 1 1.74916667 12.24416667 22.73916667
44 1 1.74916667 12.24416667 26.23750000
45 1 1.74916667 12.24416667 29.73583333
46 1 1.74916667 12.24416667 33.23416667
47 1 1.74916667 12.24416667 36.73250000
48 1 1.74916667 12.24416667 40.23083333
49 1 1.74916667 15.74250000 1.74916667
50 1 1.74916667 15.74250000 5.24750000
51 1 1.74916667 15.74250000 8.74583333
52 1 1.74916667 15.74250000 12.24416667
53 1 1.74916667 15.74250000 15.74250000
54 1 1.74916667 15.74250000 19.24083333
55 1 1.74916667 15.74250000 22.73916667
56 1 1.74916667 15.74250000 26.23750000
57 1 1.74916667 15.74250000 29.73583333
58 1 1.74916667 15.74250000 33.23416667
59 1 1.74916667 15.74250000 36.73250000
60 1 1.74916667 15.74250000 40.23083333
61 1 1.74916667 19.24083333 1.74916667
62 1 1.74916667 19.24083333 5.24750000
63 1 1.74916667 19.24083333 8.74583333
64 1 1.74916667 19.24083333 12.24416667
65 1 1.74916667 19.24083333 15.74250000
66 1 1.74916667 19.24083333 19.24083333
67 1 1.74916667 19.24083333 22.73916667
68 1 1.74916667 19.24083333 26.23750000
69 1 1.74916667 19.24083333 29.73583333
70 1 1.74916667 19.24083333 33.23416667
71 1 1.74916667 19.24083333 36.73250000
72 1 1.74916667 19.24083333 40.23083333
73 1 1.74916667 22.73916667 1.74916667
74 1 1.74916667 22.73916667 5.24750000
75 1 1.74916667 22.73916667 8.74583333
76 1 1.74916667 22.73916667 12.24416667
77 1 1.74916667 22.73916667 15.74250000
78 1 1.74916667 22.73916667 19.24083333
79 1 1.74916667 22.73916667 22.73916667
80 1 1.74916667 22.73916667 26.23750000
81 1 1.74916667 22.73916667 29.73583333
82 1 1.74916667 22.73916667 33.23416667
83 1 1.74916667 22.73916667 36.73250000
84 1 1.74916667 22.73916667 40.23083333
85 1 1.74916667 26.23750000 1.74916667
86 1 1.74916667 26.23750000 5.24750000
87 1 1.74916667 26.23750000 8.74583333
88 1 1.74916667 26.23750000 12.24416667
89 1 1.74916667 26.23750000 15.74250000
90 1 1.74916667 26.23750000 19.24083333
91 1 1.74916667 26.23750000 22.73916667
92 1 1.74916667 26.23750000 26.23750000
93 1 1.74916667 26.23750000 29.73583333
94 1 1.74916667 26.23750000 33.23416667
95 1 1.74916667 26.23750000 36.73250000
96 1 1.74916667 26.23750000 40.23083333
97 1 1.74916667 29.73583333 1.74916667
98 1 1.74916667 29.73583333 5.24750000
99 1 1.74916667 29.73583333 8.74583333
100 1 1.74916667 29.73583333 12.24416667
101 1 1.74916667 29.73583333 15.74250000
102 1 1.74916667 29.73583333 19.24083333
103 1 1.74916667 29.73583333 22.73916667
104 1 1.74916667 29.73583333 26.23750000
105 1 1.74916667 29.73583333 29.73583333
106 1 1.74916667 29.73583333 33.23416667
107 1 1.74916667 29.73583333 36.73250000
108 1 1.74916667 29.73583333 40.23083333
109 1 1.74916667 33.23416667 1.74916667
110 1 1.74916667 33.23416667 5.24750000
111 1 1.74916667 33.23416667 8.74583333
112 1 1.74916667 33.23416667 12.24416667
113 1 1.74916667 33.23416667 15.74250000
114 1 1.74916667 33.23416667 19.24083333
115 1 1.74916667 33.23416667 22.73916667
116 1 1.74916667 33.23416667 26.23750000
117 1 1.74916667 33.23416667 29.73583333
118 1 1.74916667 33.23416667 33.23416667
119 1 1.74916667 33.23416667 36.73250000
120 1 1.74916667 33.23416667 40.23083333
121 1 1.74916667 36.73250000 1.74916667
122 1 1.74916667 36.73250000 5.24750000
123 1 1.74916667 36.73250000 8.74583333
124 1 1.74916667 36.73250000 12.24416667
125 1 1.74916667 36.73250000 15.74250000
126 1 1.74916667 36.73250000 19.24083333
127 1 1.74916667 36.73250000 22.73916667
128 1 1.74916667 36.73250000 26.23750000
129 1 1.74916667 36.73250000 29.73583333
130 1 1.74916667 36.73250000 33.23416667
131 1 1.74916667 36.73250000 36.73250000
132 1 1.74916667 36.73250000 40.23083333
133 1 1.74916667 40.23083333 1.74916667
134 1 1.74916667 40.23083333 5.24750000
135 1 1.74916667 40.23083333 8.74583333
136 1 1.74916667 40.23083333 12.24416667
137 1 1.74916667 40.23083333 15.74250000
138 1 1.74916667 40.23083333 19.24083333
139 1 1.74916667 40.23083333 22.73916667
140 1 1.74916667 40.23083333 26.23750000
141 1 1.74916667 40.23083333 29.73583333
142 1 1.74916667 40.23083333 33.23416667
143 1 1.74916667 40.23083333 36.73250000
144 1 1.74916667 40.23083333 40.23083333
145 1 5.24750000 1.74916667 1.74916667
146 1 5.24750000 1.74916667 5.24750000
147 1 5.24750000 1.74916667 8.74583333
148 1 5.24750000 1.74916667 12.24416667
149 1 5.24750000 1.74916667 15.74250000
150 1 5.24750000 1.74916667 19.24083333
151 1 5.24750000 1.74916667 22.73916667
152 1 5.24750000 1.74916667 26.23750000
153 1 5.24750000 1.74916667 29.73583333
154 1 5.24750000 1.74916667 33.23416667
155 1 5.24750000 1.74916667 36.73250000
156 1 5.24750000 1.74916667 40.23083333
157 1 5.24750000 5.24750000 1.74916667
158 1 5.24750000 5.24750000 5.24750000
159 1 5.24750000 5.24750000 8.74583333
160 1 5.24750000 5.24750000 12.24416667
161 1 5.24750000 5.24750000 15.74250000
162 1 5.24750000 5.24750000 19.24083333
163 1 5.24750000 5.24750000 22.73916667
164 1 5.24750000 5.24750000 26.23750000
165 1 5.24750000 5.24750000 29.73583333
166 1 5.24750000 5.24750000 33.23416667
167 1 5.24750000 5.24750000 36.73250000
168 1 5.24750000 5.24750000 40.23083333
169 1 5.24750000 8.74583333 1.74916667
170 1 5.24750000 8.74583333 5.24750000
171 1 5.24750000 8.74583333 8.74583333
172 1 5.24750000 8.74583333 12.24416667
173 1 5.24750000 8.74583333 15.74250000
174 1 5.24750000 8.74583333 19.24083333
175 1 5.24750000 8.74583333 22.73916667
176 1 5.24750000 8.74583333 26.23750000
177 1 5.24750000 8.74583333 29.73583333
178 1 5.24750000 8.74583333 33.23416667
179 1 5.24750000 8.74583333 36.73250000
180 1 5.24750000 8.74583333 40.23083333
181 1 5.24750000 12.24416667 1.74916667
182 1 5.24750000 12.24416667 5.24750000
183 1 5.24750000 12.24416667 8.74583333
184 1 5.24750000 12.24416667 12.24416667
185 1 5.24750000 12.24416667 15.74250000
186 1 5.24750000 12.24416667 19.24083333
187 1 5.24750000 12.24416667 22.73916667
188 1 5.24750000 12.24416667 26.23750000
189 1 5.24750000 12.24416667 29.73583333
190 1 5.24750000 12.24416667 33.23416667
191 1 5.24750000 12.24416667 36.73250000
192 1 5.24750000 12.24416667 40.23083333
193 1 5.24750000 15.74250000 1.74916667
194 1 5.24750000 15.74250000 5.24750000
195 1 5.24750000 15.74250000 8.74583333
196 1 5.24750000 15.74250000 12.24416667
197 1 5.24750000 15.74250000 15.74250000
198 1 5.24750000 15.74250000 19.24083333
199 1 5.24750000 15.74250000 22.73916667
200 1 5.24750000 15.74250000 26.23750000
201 1 5.24750000 15.74250000 29.73583333
202 1 5.24750000 15.74250000 33.23416667
203 1 5.24750000 15.74250000 36.73250000
204 1 5.24750000 15.74250000 40.23083333
205 1 5.24750000 19.24083333 1.74916667
206 1 5.24750000 19.24083333 5.24750000
207 1 5.24750000 19.24083333 8.74583333
208 1 5.24750000 19.24083333 12.24416667
209 1 5.24750000 19.24083333 15.74250000
210 1 5.24750000 19.24083333 19.24083333
211 1 5.24750000 19.24083333 22.73916667
212 1 5.24750000 19.24083333 26.23750000
213 1 5.24750000 19.24083333 29.73583333
214 1 5.24750000 19.24083333 33.23416667
215 1 5.24750000 19.24083333 36.73250000
216 1 5.24750000 19.24083333 40.23083333
217 1 5.24750000 22.73916667 1.74916667
218 1 5.24750000 22.73916667 5.24750000
219 1 5.24750000 22.73916667 8.74583333
220 1 5.24750000 22.73916667 12.24416667
221 1 5.24750000 22.73916667 15.74250000
222 1 5.24750000 22.73916667 19.24083333
223 1 5.24750000 22.73916667 22.73916667
224 1 5.24750000 22.73916667 26.23750000
225 1 5.24750000 22.73916667 29.73583333
226 1 5.24750000 22.73916667 33.23416667
227 1 5.24750000 22.73916667 36.73250000
228 1 5.24750000 22.73916667 40.23083333
229 1 5.24750000 26.23750000 1.74916667
230 1 5.24750000 26.23750000 5.24750000
231 1 5.24750000 26.23750000 8.74583333
232 1 5.24750000 26.23750000 12.24416667
233 1 5.24750000 26.23750000 15.74250000
234 1 5.24750000 26.23750000 19.24083333
235 1 5.24750000 26.23750000 22.73916667
236 1 5.24750000 26.23750000 26.23750000
237 1 5.24750000 26.23750000 29.73583333
238 1 5.24750000 26.23750000 33.23416667
239 1 5.24750000 26.23750000 36.73250000
240 1 5.24750000 26.23750000 40.23083333
241 1 5.24750000 29.73583333 1.74916667
242 1 5.24750000 29.73583333 5.24750000
243 1 5.24750000 29.73583333 8.74583333
244 1 5.24750000 29.73583333 12.24416667
245 1 5.24750000 29.73583333 15.74250000
246 1 5.24750000 29.73583333 19.24083333
247 1 5.24750000 29.73583333 22.73916667
248 1 5.24750000 29.73583333 26.23750000
249 1 5.24750000 29.73583333 29.73583333
250 1 5.24750000 29.73583333 33.23416667
251 1 5.24750000 29.73583333 36.73250000
252 1 5.24750000 29.73583333 40.23083333
253 1 5.24750000 33.23416667 1.74916667
254 1 5.24750000 33.23416667 5.24750000
255 1 5.24750000 33.23416667 8.74583333
256 1 5.24750000 33.23416667 12.24416667
257 1 5.24750000 33.23416667 15.74250000
258 1 5.24750000 33.23416667 19.24083333
259 1 5.24750000 33.23416667 22.73916667
260 1 5.24750000 33.23416667 26.23750000
261 1 5.24750000 33.23416667 29.73583333
262 1 5.24750000 33.23416667 33.23416667
263 1 5.24750000 33.23416667 36.73250000
264 1 5.24750000 33.23416667 40.23083333
265 1 5.24750000 36.73250000 1.74916667
266 1 5.24750000 36.73250000 5.24750000
267 1 5.24750000 36.73250000 8.74583333
268 1 5.24750000 36.73250000 12.24416667
269 1 5.24750000 36.73250000 15.74250000
270 1 5.24750000 36.73250000 19.24083333
271 1 5.24750000 36.73250000 22.73916667
272 1 5.24750000 36.73250000 26.23750000
273 1 5.24750000 36.73250000 29.73583333
274 1 5.24750000 36.73250000 33.23416667
275 1 5.24750000 36.73250000 36.73250000
276 1 5.24750000 36.73250000 40.23083333
277 1 5.24750000 40.23083333 1.74916667
278 1 5.24750000 40.23083333 5.24750000
279 1 5.24750000 40.23083333 8.74583333
280 1 5.24750000 40.23083333 12.24416667
281 1 5.24750000 40.23083333 15.74250000
282 1 5.24750000 40.23083333 19.24083333
283 1 5.24750000 40.23083333 22.73916667
284 1 5.24750000 40.23083333 26.23750000
285 1 5.24750000 40.23083333 29.73583333
286 1 5.24750000 40.23083333 33.23416667
287 1 5.24750000 40.23083333 36.73250000
288 1 5.24750000 40.23083333 40.23083333
289 1 8.74583333 1.74916667 1.74916667
290 1 8.74583333 1.74916667 5.24750000
291 1 8.74583333 1.74916667 8.74583333
292 1 8.74583333 1.74916667 12.24416667
293 1 8.74583333 1.74916667 15.74250000
294 1 8.74583333 1.74916667 19.24083333
295 1 8.74583333 1.74916667 22.73916667
296 1 8.74583333 1.74916667 26.23750000
297 1 8.74583333 1.74916667 29.73583333
298 1 8.74583333 1.74916667 33.23416667
299 1 8.74583333 1.74916667 36.73250000
300 1 8.74583333 1.74916667 40.23083333
301 1 8.74583333 5.24750000 1.74916667
302 1 8.74583333 5.24750000 5.24750000
303 1 8.74583333 5.24750000 8.74583333
304 1 8.74583333 5.24750000 12.24416667
305 1 8.74583333 5.24750000 15.74250000
306 1 8.74583333 5.24750000 19.24083333
307 1 8.74583333 5.24750000 22.73916667
308 1 8.74583333 5.24750000 26.23750000
309 1 8.74583333 5.24750000 29.73583333
310 1 8.74583333 5.24750000 33.23416667
311 1 8.74583333 5.24750000 36.73250000
312 1 8.74583333 5.24750000 40.23083333
313 1 8.74583333 8.74583333 1.74916667
314 1 8.74583333 8.74583333 5.24750000
315 1 8.74583333 8.74583333 8.74583333
316 1 8.74583333 8.74583333 12.24416667
317 1 8.74583333 8.74583333 15.74250000
318 1 8.74583333 8.74583333 19.24083333
319 1 8.74583333 8.74583333 22.73916667
320 1 8.74583333 8.74583333 26.23750000
321 1 8.74583333 8.74583333 29.73583333
322 1 8.74583333 8.74583333 33.23416667
323 1 8.74583333 8.74583333 36.73250000
324 1 8.74583333 8.74583333 40.23083333
325 1 8.74583333 12.24416667 1.74916667
326 1 8.74583333 12.24416667 5.24750000
327 1 8.74583333 12.24416667 8.74583333
328 1 8.74583333 12.24416667 12.24416667
329 1 8.74583333 12.24416667 15.74250000
330 1 8.74583333 12.24416667 19.24083333
331 1 8.74583333 12.24416667 22.73916667
332 1 8.74583333 12.24416667 26.23750000
333 1 8.74583333 12.24416667 29.73583333
334 1 8.74583333 12.24416667 33.23416667
335 1 8.74583333 12.24416667 36.73250000
336 1 8.74583333 12.24416667 40.23083333
337 1 8.74583333 15.74250000 1.74916667
338 1 8.74583333 15.74250000 5.24750000
339 1 8.74583333 15.74250000 8.74583333
340 1 8.74583333 15.74250000 12.24416667
341 1 8.74583333 15.74250000 15.74250000
342 1 8.74583333 15.74250000 19.24083333
343 1 8.74583333 15.74250000 22.73916667
344 1 8.74583333 15.74250000 26.23750000
345 1 8.74583333 15.74250000 29.73583333
346 1 8.74583333 15.74250000 33.23416667
347 1 8.74583333 15.74250000 36.73250000
348 1 8.74583333 15.74250000 40.23083333
349 1 8.74583333 19.24083333 1.74916667
350 1 8.74583333 19.24083333 5.24750000
351 1 8.74583333 19.24083333 8.74583333
352 1 8.74583333 19.24083333 12.24416667
353 1 8.74583333 19.24083333 15.74250000
354 1 8.74583333 19.24083333 19.24083333
355 1 8.74583333 19.24083333 22.73916667
356 1 8.74583333 19.24083333 26.23750000
357 1 8.74583333 19.24083333 29.73583333
358 1 8.74583333 19.24083333 33.23416667
359 1 8.74583333 19.24083333 36.73250000
360 1 8.74583333 19.24083333 40.23083333
361 1 8.74583333 22.73916667 1.74916667
362 1 8.74583333 22.73916667 5.24750000
363 1 8.74583333 22.73916667 8.74583333
364 1 8.74583333 22.73916667 12.24416667
365 1 8.74583333 22.73916667 15.74250000
366 1 8.74583333 22.73916667 19.24083333
367 1 8.74583333 22.73916667 22.73916667
368 1 8.74583333 22.73916667 26.23750000
369 1 8.74583333 22.73916667 29.73583333
370 1 8.74583333 22.73916667 33.23416667
371 1 8.74583333 22.73916667 36.73250000
372 1 8.74583333 22.73916667 40.23083333
373 1 8.74583333 26.23750000 1.74916667
374 1 8.74583333 26.23750000 5.24750000
375 1 8.74583333 26.23750000 8.74583333
376 1 8.74583333 26.23750000 12.24416667
377 1 8.74583333 26.23750000 15.74250000
378 1 8.74583333 26.23750000 19.24083333
379 1 8.74583333 26.23750000 22.73916667
380 1 8.74583333 26.23750000 26.23750000
381 1 8.74583333 26.23750000 29.73583333
382 1 8.74583333 26.23750000 33.23416667
383 1 8.74583333 26.23750000 36.73250000
384 1 8.74583333 26.23750000 40.23083333
385 1 8.74583333 29.73583333 1.74916667
386 1 8.74583333 29.73583333 5.24750000
387 1 8.74583333 29.73583333 8.74583333
388 1 8.74583333 29.73583333 12.24416667
389 1 8.74583333 29.73583333 15.74250000
390 1 8.74583333 29.73583333 19.24083333
391 1 8.74583333 29.73583333 22.73916667
392 1 8.74583333 29.73583333 26.23750000
393 1 8.74583333 29.73583333 29.73583333
394 1 8.74583333 29.73583333 33.23416667
395 1 8.74583333 29.73583333 36.73250000
396 1 8.74583333 29.73583333 40.23083333
397 1 8.74583333 33.23416667 1.74916667
398 1 8.74583333 33.23416667 5.24750000
399 1 8.74583333 33.23416667 8.74583333
400 1 8.74583333 33.23416667 12.24416667
401 1 8.74583333 33.23416667 15.74250000
402 1 8.74583333 33.23416667 19.24083333
403 1 8.74583333 33.23416667 22.73916667
404 1 8.74583333 33.23416667 26.23750000
405 1 8.74583333 33.23416667 29.73583333
406 1 8.74583333 33.23416667 33.23416667
407 1 8.74583333 33.23416667 36.73250000
408 1 8.74583333 33.23416667 40.23083333
409 1 8.74583333 36.73250000 1.74916667
410 1 8.74583333 36.73250000 5.24750000
411 1 8.74583333 36.73250000 8.74583333
412 1 8.74583333 36.73250000 12.24416667
413 1 8.74583333 36.73250000 15.74250000
414 1 8.74583333 36.73250000 19.24083333
415 1 8.74583333 36.73250000 22.73916667
416 1 8.74583333 36.73250000 26.23750000
417 1 8.74583333 36.73250000 29.73583333
418 1 8.74583333 36.73250000 33.23416667
419 1 8.74583333 36.73250000 36.73250000
420 1 8.74583333 36.73250000 40.23083333
421 1 8.74583333 40.23083333 1.74916667
422 1 8.74583333 40.23083333 5.24750000
423 1 8.74583333 40.23083333 8.74583333
424 1 8.74583333 40.23083333 12.24416667
425 1 8.74583333 40.23083333 15.74250000
426 1 8.74583333 40.23083333 19.24083333
427 1 8.74583333 40.23083333 22.73916667
428 1 8.74583333 40.23083333 26.23750000
429 1 8.74583333 40.23083333 29.73583333
430 1 8.74583333 40.23083333 33.23416667
431 1 8.74583333 40.23083333 36.73250000
432 1 8.74583333 40.23083333 40.23083333
433 1 12.24416667 1.74916667 1.74916667
434 1 12.24416667 1.74916667 5.24750000
435 1 12.24416667 1.74916667 8.74583333
436 1 12.24416667 1.74916667 12.24416667
437 1 12.24416667 1.74916667 15.74250000
438 1 12.24416667 1.74916667 19.24083333
439 1 12.24416667 1.74916667 22.73916667
440 1 12.24416667 1.74916667 26.23750000
441 1 12.24416667 1.74916667 29.73583333
442 1 12.24416667 1.74916667 33.23416667
443 1 12.24416667 1.74916667 36.73250000
444 1 12.24416667 1.74916667 40.23083333
445 1 12.24416667 5.24750000 1.74916667
446 1 12.24416667 5.24750000 5.24750000
447 1 12.24416667 5.24750000 8.74583333
448 1 12.24416667 5.24750000 12.24416667
449 1 12.24416667 5.24750000 15.74250000
450 1 12.24416667 5.24750000 19.24083333
451 1 12.24416667 5.24750000 22.73916667
452 1 12.24416667 5.24750000 26.23750000
453 1 12.24416667 5.24750000 29.73583333
454 1 12.24416667 5.24750000 33.23416667
455 1 12.24416667 5.24750000 36.73250000
456 1 12.24416667 5.24750000 40.23083333
457 1 12.24416667 8.74583333 1.74916667
458 1 12.24416667 8.74583333 5.24750000
459 1 12.24416667 8.74583333 8.74583333
460 1 12.24416667 8.74583333 12.24416667
461 1 12.24416667 8.74583333 15.74250000
462 1 12.24416667 8.74583333 19.24083333
463 1 12.24416667 8.74583333 22.73916667
464 1 12.24416667 8.74583333 26.23750000
465 1 12.24416667 8.74583333 29.73583333
466 1 12.24416667 8.74583333 33.23416667
467 1 12.24416667 8.74583333 36.73250000
468 1 12.24416667 8.74583333 40.23083333
469 1 12.24416667 12.24416667 1.74916667
470 1 12.24416667 12.24416667 5.24750000
471 1 12.24416667 12.24416667 8.74583333
472 1 12.24416667 12.24416667 12.24416667
473 1 12.24416667 12.24416667 15.74250000
474 1 12.24416667 12.24416667 19.24083333
475 1 12.24416667 12.24416667 22.73916667
476 1 12.24416667 12.24416667 26.23750000
477 1 12.24416667 12.24416667 29.73583333
478 1 12.24416667 12.24416667 33.23416667
479 1 12.24416667 12.24416667 36.73250000
480 1 12.24416667 12.24416667 40.23083333
481 1 12.24416667 15.74250000 1.74916667
482 1 12.24416667 15.74250000 5.24750000
483 1 12.24416667 15.74250000 8.74583333
484 1 12.24416667 15.74250000 12.24416667
485 1 12.24416667 15.74250000 15.74250000
486 1 12.24416667 15.74250000 19.24083333
487 1 12.24416667 15.74250000 22.73916667
488 1 12.24416667 15.74250000 26.23750000
489 1 12.24416667 15.74250000 29.73583333
490 1 12.24416667 15.74250000 33.23416667
491 1 12.24416667 15.74250000 36.73250000
492 1 12.24416667 15.74250000 40.23083333
493 1 12.24416667 19.24083333 1.74916667
494 1 12.24416667 19.24083333 5.24750000
495 1 12.24416667 19.24083333 8.74583333
496 1 12.24416667 19.24083333 12.24416667
497 1 12.24416667 19.24083333 15.74250000
498 1 12.24416667 19.24083333 19.24083333
499 1 12.24416667 19.24083333 22.73916667
500 1 12.24416667 19.24083333 26.23750000
501 1 12.24416667 19.24083333 29.73583333
502 1 12.24416667 19.24083333 33.23416667
503 1 12.24416667 19.24083333 36.73250000
504 1 12.24416667 19.24083333 40.23083333
505 1 12.24416667 22.73916667 1.74916667
506 1 12.24416667 22.73916667 5.24750000
507 1 12.24416667 22.73916667 8.74583333
508 1 12.24416667 22.73916667 12.24416667
509 1 12.24416667 22.73916667 15.74250000
510 1 12.24416667 22.73916667 19.24083333
511 1 12.24416667 22.73916667 22.73916667
512 1 12.24416667 22.73916667 26.23750000
513 1 12.24416667 22.73916667 29.73583333
514 1 12.24416667 22.73916667 33.23416667
515 1 12.24416667 22.73916667 36.73250000
516 1 12.24416667 22.73916667 40.23083333
517 1 12.24416667 26.23750000 1.74916667
518 1 12.24416667 26.23750000 5.24750000
519 1 12.24416667 26.23750000 8.74583333
520 1 12.24416667 26.23750000 12.24416667
521 1 12.24416667 26.23750000 15.74250000
522 1 12.24416667 26.23750000 19.24083333
523 1 12.24416667 26.23750000 22.73916667
524 1 12.24416667 26.23750000 26.23750000
525 1 12.24416667 26.23750000 29.73583333
526 1 12.24416667 26.23750000 33.23416667
527 1 12.24416667 26.23750000 36.73250000
528 1 12.24416667 26.23750000 40.23083333
529 1 12.24416667 29.73583333 1.74916667
530 1 12.24416667 29.73583333 5.24750000
531 1 12.24416667 29.73583333 8.74583333
532 1 12.24416667 29.73583333 12.24416667
533 1 12.24416667 29.73583333 15.74250000
534 1 12.24416667 29.73583333 19.24083333
535 1 12.24416667 29.73583333 22.73916667
536 1 12.24416667 29.73583333 26.23750000
537 1 12.24416667 29.73583333 29.73583333
538 1 12.24416667 29.73583333 33.23416667
539 1 12.24416667 29.73583333 36.73250000
540 1 12.24416667 29.73583333 40.23083333
541 1 12.24416667 33.23416667 1.74916667
542 1 12.24416667 33.23416667 5.24750000
543 1 12.24416667 33.23416667 8.74583333
544 1 12.24416667 33.23416667 12.24416667
545 1 12.24416667 33.23416667 15.74250000
546 1 12.24416667 33.23416667 19.24083333
547 1 12.24416667 33.23416667 22.73916667
548 1 12.24416667 33.23416667 26.23750000
549 1 12.24416667 33.23416667 29.73583333
550 1 12.24416667 33.23416667 33.23416667
551 1 12.24416667 33.23416667 36.73250000
552 1 12.24416667 33.23416667 40.23083333
553 1 12.24416667 36.73250000 1.74916667
554 1 12.24416667 36.73250000 5.24750000
555 1 12.24416667 36.73250000 8.74583333
556 1 12.24416667 36.73250000 12.24416667
557 1 12.24416667 36.73250000 15.74250000
558 1 12.24416667 36.73250000 19.24083333
559 1 12.24416667 36.73250000 22.73916667
560 1 12.24416667 36.73250000 26.23750000
561 1 12.24416667 36.73250000 29.73583333
562 1 12.24416667 36.73250000 33.23416667
563 1 12.24416667 36.73250000 36.73250000
564 1 12.24416667 36.73250000 40.23083333
565 1 12.24416667 40.23083333 1.74916667
566 1 12.24416667 40.23083333 5.24750000
567 1 12.24416667 40.23083333 8.74583333
568 1 12.24416667 40.23083333 12.24416667
569 1 12.24416667 40.23083333 15.74250000
570 1 12.24416667 40.23083333 19.24083333
571 1 12.24416667 40.23083333 22.73916667
572 1 12.24416667 40.23083333 26.23750000
573 1 12.24416667 40.23083333 29.73583333
574 1 12.24416667 40.23083333 33.23416667
575 1 12.24416667 40.23083333 36.73250000
576 1 12.24416667 40.23083333 40.23083333
577 1 15.74250000 1.74916667 1.74916667
578 1 15.74250000 1.74916667 5.24750000
579 1 15.74250000 1.74916667 8.74583333
580 1 15.74250000 1.74916667 12.24416667
581 1 15.74250000 1.74916667 15.74250000
582 1 15.74250000 1.74916667 19.24083333
583 1 15.74250000 1.74916667 22.73916667
584 1 15.74250000 1.74916667 26.23750000
585 1 15.74250000 1.74916667 29.73583333
586 1 15.74250000 1.74916667 33.23416667
587 1 15.74250000 1.74916667 36.73250000
588 1 15.74250000 1.74916667 40.23083333
589 1 15.74250000 5.24750000 1.74916667
590 1 15.74250000 5.24750000 5.24750000
591 1 15.74250000 5.24750000 8.74583333
592 1 15.74250000 5.24750000 12.24416667
593 1 15.74250000 5.24750000 15.74250000
594 1 15.74250000 5.24750000 19.24083333
595 1 15.74250000 5.24750000 22.73916667
596 1 15.74250000 5.24750000 26.23750000
597 1 15.74250000 5.24750000 29.73583333
598 1 15.74250000 5.24750000 33.23416667
599 1 15.74250000 5.24750000 36.73250000
600 1 15.74250000 5.24750000 40.23083333
601 1 15.74250000 8.74583333 1.74916667
602 1 15.74250000 8.74583333 5.24750000
603 1 15.74250000 8.74583333 8.74583333
604 1 15.74250000 8.74583333 12.24416667
605 1 15.74250000 8.74583333 15.74250000
606 1 15.74250000 8.74583333 19.24083333
607 1 15.74250000 8.74583333 22.73916667
608 1 15.74250000 8.74583333 26.23750000
609 1 15.74250000 8.74583333 29.73583333
610 1 15.74250000 8.74583333 33.23416667
611 1 15.74250000 8.74583333 36.73250000
612 1 15.74250000 8.74583333 40.23083333
613 1 15.74250000 12.24416667 1.74916667
614 1 15.74250000 12.24416667 5.24750000
615 1 15.74250000 12.24416667 8.74583333
616 1 15.74250000 12.24416667 12.24416667
617 1 15.74250000 12.24416667 15.74250000
618 1 15.74250000 12.24416667 19.24083333
619 1 15.74250000 12.24416667 22.73916667
620 1 15.74250000 12.24416667 26.23750000
621 1 15.74250000 12.24416667 29.73583333
622 1 15.74250000 12.24416667 33.23416667
623 1 15.74250000 12.24416667 36.73250000
624 1 15.74250000 12.24416667 40.23083333
625 1 15.74250000 15.74250000 1.74916667
626 1 15.74250000 15.74250000 5.24750000
627 1 15.74250000 15.74250000 8.74583333
628 1 15.74250000 15.74250000 12.24416667
629 1 15.74250000 15.74250000 15.74250000
630 1 15.74250000 15.74250000 19.24083333
631 1 15.74250000 15.74250000 22.73916667
632 1 15.74250000 15.74250000 26.23750000
633 1 15.74250000 15.74250000 29.73583333
634 1 15.74250000 15.74250000 33.23416667
635 1 15.74250000 15.74250000 36.73250000
636 1 15.74250000 15.74250000 40.23083333
637 1 15.74250000 19.24083333 1.74916667
638 1 15.74250000 19.24083333 5.24750000
639 1 15.74250000 19.24083333 8.74583333
640 1 15.74250000 19.24083333 12.24416667
641 1 15.74250000 19.24083333 15.74250000
642 1 15.74250000 19.24083333 19.24083333
643 1 15.74250000 19.24083333 22.73916667
644 1 15.74250000 19.24083333 26.23750000
645 1 15.74250000 19.24083333 29.73583333
646 1 15.74250000 19.24083333 33.23416667
647 1 15.74250000 19.24083333 36.73250000
648 1 15.74250000 19.24083333 40.23083333
649 1 15.74250000 22.73916667 1.74916667
650 1 15.74250000 22.73916667 5.24750000
651 1 15.74250000 22.73916667 8.74583333
652 1 15.74250000 22.73916667 12.24416667
653 1 15.74250000 22.73916667 15.74250000
654 1 15.74250000 22.73916667 19.24083333
655 1 15.74250000 22.73916667 22.73916667
656 1 15.74250000 22.73916667 26.23750000
657 1 15.74250000 22.73916667 29.73583333
658 1 15.74250000 22.73916667 33.23416667
659 1 15.74250000 22.73916667 36.73250000
660 1 15.74250000 22.73916667 40.23083333
661 1 15.74250000 26.23750000 1.74916667
662 1 15.74250000 26.23750000 5.24750000
663 1 15.74250000 26.23750000 8.74583333
664 1 15.74250000 26.23750000 12.24416667
665 1 15.74250000 26.23750000 15.74250000
666 1 15.74250000 26.23750000 19.24083333
667 1 15.74250000 26.23750000 22.73916667
668 1 15.74250000 26.23750000 26.23750000
669 1 15.74250000 26.23750000 29.73583333
670 1 15.74250000 26.23750000 33.23416667
671 1 15.74250000 26.23750000 36.73250000
672 1 15.74250000 26.23750000 40.23083333
673 1 15.74250000 29.73583333 1.74916667
674 1 15.74250000 29.73583333 5.24750000
675 1 15.74250000 29.73583333 8.74583333
676 1 15.74250000 29.73583333 12.24416667
677 1 15.74250000 29.73583333 15.74250000
678 1 15.74250000 29.73583333 19.24083333
679 1 15.74250000 29.73583333 22.73916667
680 1 15.74250000 29.73583333 26.23750000
681 1 15.74250000 29.73583333 29.73583333
682 1 15.74250000 29.73583333 33.23416667
683 1 15.74250000 29.73583333 36.73250000
684 1 15.74250000 29.73583333 40.23083333
685 1 15.74250000 33.23416667 1.74916667
686 1 15.74250000 33.23416667 5.24750000
687 1 15.74250000 33.23416667 8.74583333
688 1 15.74250000 33.23416667 12.24416667
689 1 15.74250000 33.23416667 15.74250000
690 1 15.74250000 33.23416667 19.24083333
691 1 15.74250000 33.23416667 22.73916667
692 1 15.74250000 33.23416667 26.23750000
693 1 15.74250000 33.23416667 29.73583333
694 1 15.74250000 33.23416667 33.23416667
695 1 15.74250000 33.23416667 36.73250000
696 1 15.74250000 33.23416667 40.23083333
697 1 15.74250000 36.73250000 1.74916667
698 1 15.74250000 36.73250000 5.24750000
699 1 15.74250000 36.73250000 8.74583333
700 1 15.74250000 36.73250000 12.24416667
701 1 15.74250000 36.73250000 15.74250000
702 1 15.74250000 36.73250000 19.24083333
703 1 15.74250000 36.73250000 22.73916667
704 1 15.74250000 36.73250000 26.23750000
705 1 15.74250000 36.73250000 29.73583333
706 1 15.74250000 36.73250000 33.23416667
707 1 15.74250000 36.73250000 36.73250000
708 1 15.74250000 36.73250000 40.23083333
709 1 15.74250000 40.23083333 1.74916667
710 1 15.74250000 40.23083333 5.24750000
711 1 15.74250000 40.23083333 8.74583333
712 1 15.74250000 40.23083333 12.24416667
713 1 15.74250000 40.23083333 15.74250000
714 1 15.74250000 40.23083333 19.24083333
715 1 15.74250000 40.23083333 22.73916667
716 1 15.74250000 40.23083333 26.23750000
717 1 15.74250000 40.23083333 29.73583333
718 1 15.74250000 40.23083333 33.23416667
719 1 15.74250000 40.23083333 36.73250000
720 1 15.74250000 40.23083333 40.23083333
721 1 19.24083333 1.74916667 1.74916667
722 1 19.24083333 1.74916667 5.24750000
723 1 19.24083333 1.74916667 8.74583333
724 1 19.24083333 1.74916667 12.24416667
725 1 19.24083333 1.74916667 15.74250000
726 1 19.24083333 1.74916667 19.24083333
727 1 19.24083333 1.74916667 22.73916667
728 1 19.24083333 1.74916667 26.23750000
729 1 19.24083333 1.74916667 29.73583333
730 1 19.24083333 1.74916667 33.23416667
731 1 19.24083333 1.74916667 36.73250000
732 1 19.24083333 1.74916667 40.23083333
733 1 19.24083333 5.24750000 1.74916667