LAMMPS Simulation Data
256 atoms
1 atom types

0 97.21 xlo xhi 
0 97.21 ylo yhi 
0 97.21 zlo zhi 

Masses

1 1.0

Atoms

1 1 6.94357143 6.94357143 6.94357143
2 1 6.94357143 6.94357143 20.83071429
3 1 6.94357143 6.94357143 34.71785714
4 1 6.94357143 6.94357143 48.60500000
5 1 6.94357143 6.94357143 62.49214286
6 1 6.94357143 6.94357143 76.37928571
7 1 6.94357143 6.94357143 90.26642857
8 1 6.94357143 20.83071429 6.94357143
9 1 6.94357143 20.83071429 20.83071429
10 1 6.94357143 20.83071429 34.71785714
11 1 6.94357143 20.83071429 48.60500000
12 1 6.94357143 20.83071429 62.49214286
13 1 6.94357143 20.83071429 76.37928571
14 1 6.94357143 20.83071429 90.26642857
15 1 6.94357143 34.71785714 6.94357143
16 1 6.94357143 34.71785714 20.83071429
17 1 6.94357143 34.71785714 34.71785714
18 1 6.94357143 34.71785714 48.60500000
19 1 6.94357143 34.71785714 62.49214286
20 1 6.94357143 34.71785714 76.37928571
21 1 6.94357143 34.71785714 90.26642857
22 1 6.94357143 48.60500000 6.94357143
23 1 6.94357143 48.60500000 20.83071429
24 1 6.94357143 48.60500000 34.71785714
25 1 6.94357143 48.60500000 48.60500000
26 1 6.94357143 48.60500000 62.49214286
27 1 6.94357143 48.60500000 76.37928571
28 1 6.94357143 48.60500000 90.26642857
29 1 6.94357143 62.49214286 6.94357143
30 1 6.94357143 62.49214286 20.83071429
31 1 6.94357143 62.49214286 34.71785714
32 1 6.94357143 62.49214286 48.60500000
33 1 6.94357143 62.49214286 62.49214286
34 1 6.94357143 62.49214286 76.37928571
35 1 6.94357143 62.49214286 90.26642857
36 1 6.94357143 76.37928571 6.94357143
37 1 6.94357143 76.37928571 20.83071429
38 1 6.94357143 76.37928571 34.71785714
39 1 6.94357143 76.37928571 48.60500000
40 1 6.94357143 76.37928571 62.49214286
41 1 6.94357143 76.37928571 76.37928571
42 1 6.94357143 76.37928571 90.26642857
43 1 6.94357143 90.26642857 6.94357143
44 1 6.94357143 90.26642857 20.83071429
45 1 6.94357143 90.26642857 34.71785714
46 1 6.94357143 90.26642857 48.60500000
47 1 6.94357143 90.26642857 62.49214286
48 1 6.94357143 90.26642857 76.37928571
49 1 6.94357143 90.26642857 90.26642857
50 1 20.83071429 6.94357143 6.94357143
51 1 20.83071429 6.94357143 20.83071429
52 1 20.83071429 6.94357143 34.71785714
53 1 20.83071429 6.94357143 48.60500000
54 1 20.83071429 6.94357143 62.49214286
55 1 20.83071429 6.94357143 76.37928571
56 1 20.83071429 6.94357143 90.26642857
57 1 20.83071429 20.83071429 6.94357143
58 1 20.83071429 20.83071429 20.83071429
59 1 20.83071429 20.83071429 34.71785714
60 1 20.83071429 20.83071429 48.60500000
61 1 20.83071429 20.83071429 62.49214286
62 1 20.83071429 20.83071429 76.37928571
63 1 20.83071429 20.83071429 90.26642857
64 1 20.83071429 34.71785714 6.94357143
65 1 20.83071429 34.71785714 20.83071429
66 1 20.83071429 34.71785714 34.71785714
67 1 20.83071429 34.71785714 48.60500000
68 1 20.83071429 34.71785714 62.49214286
69 1 20.83071429 34.71785714 76.37928571
70 1 20.83071429 34.71785714 90.26642857
71 1 20.83071429 48.60500000 6.94357143
72 1 20.83071429 48.60500000 20.83071429
73 1 20.83071429 48.60500000 34.71785714
74 1 20.83071429 48.60500000 48.60500000
75 1 20.83071429 48.60500000 62.49214286
76 1 20.83071429 48.60500000 76.37928571
77 1 20.83071429 48.60500000 90.26642857
78 1 20.83071429 62.49214286 6.94357143
79 1 20.83071429 62.49214286 20.83071429
80 1 20.83071429 62.49214286 34.71785714
81 1 20.83071429 62.49214286 48.60500000
82 1 20.83071429 62.49214286 62.49214286
83 1 20.83071429 62.49214286 76.37928571
84 1 20.83071429 62.49214286 90.26642857
85 1 20.83071429 76.37928571 6.94357143
86 1 20.83071429 76.37928571 20.83071429
87 1 20.83071429 76.37928571 34.71785714
88 1 20.83071429 76.37928571 48.60500000
89 1 20.83071429 76.37928571 62.49214286
90 1 20.83071429 76.37928571 76.37928571
91 1 20.83071429 76.37928571 90.26642857
92 1 20.83071429 90.26642857 6.94357143
93 1 20.83071429 90.26642857 20.83071429
94 1 20.83071429 90.26642857 34.71785714
95 1 20.83071429 90.26642857 48.60500000
96 1 20.83071429 90.26642857 62.49214286
97 1 20.83071429 90.26642857 76.37928571
98 1 20.83071429 90.26642857 90.26642857
99 1 34.71785714 6.94357143 6.94357143
100 1 34.71785714 6.94357143 20.83071429
101 1 34.71785714 6.94357143 34.71785714
102 1 34.71785714 6.94357143 48.60500000
103 1 34.71785714 6.94357143 62.49214286
104 1 34.71785714 6.94357143 76.37928571
105 1 34.71785714 6.94357143 90.26642857
106 1 34.71785714 20.83071429 6.94357143
107 1 34.71785714 20.83071429 20.83071429
108 1 34.71785714 20.83071429 34.71785714
109 1 34.71785714 20.83071429 48.60500000
110 1 34.71785714 20.83071429 62.49214286
111 1 34.71785714 20.83071429 76.37928571
112 1 34.71785714 20.83071429 90.26642857
113 1 34.71785714 34.71785714 6.94357143
114 1 34.71785714 34.71785714 20.83071429
115 1 34.71785714 34.71785714 34.71785714
116 1 34.71785714 34.71785714 48.60500000
117 1 34.71785714 34.71785714 62.49214286
118 1 34.71785714 34.71785714 76.37928571
119 1 34.71785714 34.71785714 90.26642857
120 1 34.71785714 48.60500000 6.94357143
121 1 34.71785714 48.60500000 20.83071429
122 1 34.71785714 48.60500000 34.71785714
123 1 34.71785714 48.60500000 48.60500000
124 1 34.71785714 48.60500000 62.49214286
125 1 34.71785714 48.60500000 76.37928571
126 1 34.71785714 48.60500000 90.26642857
127 1 34.71785714 62.49214286 6.94357143
128 1 34.71785714 62.49214286 20.83071429
129 1 34.71785714 62.49214286 34.71785714
130 1 34.71785714 62.49214286 48.60500000
131 1 34.71785714 62.49214286 62.49214286
132 1 34.71785714 62.49214286 76.37928571
133 1 34.71785714 62.49214286 90.26642857
134 1 34.71785714 76.37928571 6.94357143
135 1 34.71785714 76.37928571 20.83071429
136 1 34.71785714 76.37928571 34.71785714
137 1 34.71785714 76.37928571 48.60500000
138 1 34.71785714 76.37928571 62.49214286
139 1 34.71785714 76.37928571 76.37928571
140 1 34.71785714 76.37928571 90.26642857
141 1 34.71785714 90.26642857 6.94357143
142 1 34.71785714 90.26642857 20.83071429
143 1 34.71785714 90.26642857 34.71785714
144 1 34.71785714 90.26642857 48.60500000
145 1 34.71785714 90.26642857 62.49214286
146 1 34.71785714 90.26642857 76.37928571
147 1 34.71785714 90.26642857 90.26642857
148 1 48.60500000 6.94357143 6.94357143
149 1 48.60500000 6.94357143 20.83071429
150 1 48.60500000 6.94357143 34.71785714
151 1 48.60500000 6.94357143 48.60500000
152 1 48.60500000 6.94357143 62.49214286
153 1 48.60500000 6.94357143 76.37928571
154 1 48.60500000 6.94357143 90.26642857
155 1 48.60500000 20.83071429 6.94357143
156 1 48.60500000 20.83071429 20.83071429
157 1 48.60500000 20.83071429 34.71785714
158 1 48.60500000 20.83071429 48.60500000
159 1 48.60500000 20.83071429 62.49214286
160 1 48.60500000 20.83071429 76.37928571
161 1 48.60500000 20.83071429 90.26642857
162 1 48.60500000 34.71785714 6.94357143
163 1 48.60500000 34.71785714 20.83071429
164 1 48.60500000 34.71785714 34.71785714
165 1 48.60500000 34.71785714 48.60500000
166 1 48.60500000 34.71785714 62.49214286
167 1 48.60500000 34.71785714 76.37928571
168 1 48.60500000 34.71785714 90.26642857
169 1 48.60500000 48.60500000 6.94357143
170 1 48.60500000 48.60500000 20.83071429
171 1 48.60500000 48.60500000 34.71785714
172 1 48.60500000 48.60500000 48.60500000
173 1 48.60500000 48.60500000 62.49214286
174 1 48.60500000 48.60500000 76.37928571
175 1 48.60500000 48.60500000 90.26642857
176 1 48.60500000 62.49214286 6.94357143
177 1 48.60500000 62.49214286 20.83071429
178 1 48.60500000 62.49214286 34.71785714
179 1 48.60500000 62.49214286 48.60500000
180 1 48.60500000 62.49214286 62.49214286
181 1 48.60500000 62.49214286 76.37928571
182 1 48.60500000 62.49214286 90.26642857
183 1 48.60500000 76.37928571 6.94357143
184 1 48.60500000 76.37928571 20.83071429
185 1 48.60500000 76.37928571 34.71785714
186 1 48.60500000 76.37928571 48.60500000
187 1 48.60500000 76.37928571 62.49214286
188 1 48.60500000 76.37928571 76.37928571
189 1 48.60500000 76.37928571 90.26642857
190 1 48.60500000 90.26642857 6.94357143
191 1 48.60500000 90.26642857 20.83071429
192 1 48.60500000 90.26642857 34.71785714
193 1 48.60500000 90.26642857 48.60500000
194 1 48.60500000 90.26642857 62.49214286
195 1 48.60500000 90.26642857 76.37928571
196 1 48.60500000 90.26642857 90.26642857
197 1 62.49214286 6.94357143 6.94357143
198 1 62.49214286 6.94357143 20.83071429
199 1 62.49214286 6.94357143 34.71785714
200 1 62.49214286 6.94357143 48.60500000
201 1 62.49214286 6.94357143 62.49214286
202 1 62.49214286 6.94357143 76.37928571
203 1 62.49214286 6.94357143 90.26642857
204 1 62.49214286 20.83071429 6.94357143
205 1 62.49214286 20.83071429 20.83071429
206 1 62.49214286 20.83071429 34.71785714
207 1 62.49214286 20.83071429 48.60500000
208 1 62.49214286 20.83071429 62.49214286
209 1 62.49214286 20.83071429 76.37928571
210 1 62.49214286 20.83071429 90.26642857
211 1 62.49214286 34.71785714 6.94357143
212 1 62.49214286 34.71785714 20.83071429
213 1 62.49214286 34.71785714 34.71785714
214 1 62.49214286 34.71785714 48.60500000
215 1 62.49214286 34.71785714 62.49214286
216 1 62.49214286 34.71785714 76.37928571
217 1 62.49214286 34.71785714 90.26642857
218 1 62.49214286 48.60500000 6.94357143
219 1 62.49214286 48.60500000 20.83071429
220 1 62.49214286 48.60500000 34.71785714
221 1 62.49214286 48.60500000 48.60500000
222 1 62.49214286 48.60500000 62.49214286
223 1 62.49214286 48.60500000 76.37928571
224 1 62.49214286 48.60500000 90.26642857
225 1 62.49214286 62.49214286 6.94357143
226 1 62.49214286 62.49214286 20.83071429
227 1 62.49214286 62.49214286 34.71785714
228 1 62.49214286 62.49214286 48.60500000
229 1 62.49214286 62.49214286 62.49214286
230 1 62.49214286 62.49214286 76.37928571
231 1 62.49214286 62.49214286 90.26642857
232 1 62.49214286 76.37928571 6.94357143
233 1 62.49214286 76.37928571 20.83071429
234 1 62.49214286 76.37928571 34.71785714
235 1 62.49214286 76.37928571 48.60500000
236 1 62.49214286 76.37928571 62.49214286
237 1 62.49214286 76.37928571 76.37928571
238 1 62.49214286 76.37928571 90.26642857
239 1 62.49214286 90.26642857 6.94357143
240 1 62.49214286 90.26642857 20.83071429
241 1 62.49214286 90.26642857 34.71785714
242 1 62.49214286 90.26642857 48.60500000
243 1 62.49214286 90.26642857 62.49214286
244 1 62.49214286 90.26642857 76.37928571
245 1 62.49214286 90.26642857 90.26642857
246 1 76.37928571 6.94357143 6.94357143
247 1 76.37928571 6.94357143 20.83071429
248 1 76.37928571 6.94357143 34.71785714
249 1 76.37928571 6.94357143 48.60500000
250 1 76.37928571 6.94357143 62.49214286
251 1 76.37928571 6.94357143 76.37928571
252 1 76.37928571 6.94357143 90.26642857
253 1 76.37928571 20.83071429 6.94357143
254 1 76.37928571 20.83071429 20.83071429
255 1 76.37928571 20.83071429 34.71785714
256 1 76.37928571 20.83071429 48.60500000
