LAMMPS Simulation Data
5832 atoms
1 atom types

0 41.77 xlo xhi 
0 41.77 ylo yhi 
0 41.77 zlo zhi

Masses
 
1 1.0

Atoms

1 1 71.83938760 66.25306780 -36.26763790
2 1 -18.13361010 74.97380840 -138.52059790
3 1 -204.52805810 3.16741910 132.81523360
4 1 126.42776520 -44.95663330 89.13968620
5 1 19.18913800 -76.91945500 109.98375160
6 1 31.36759920 -94.60737920 44.46541810
7 1 -89.03943820 -45.29622340 1.28568060
8 1 -10.43623450 -208.30615460 42.98383620
9 1 -78.44698390 -246.26338900 65.53044680
10 1 -108.91569270 -6.79138430 -15.31079350
11 1 153.99805370 -90.24324960 34.49658990
12 1 -122.51767550 56.26460770 39.68317080
13 1 87.45259590 -93.29162420 92.60993780
14 1 -139.33553060 -1.45192520 -105.05238540
15 1 -0.13658790 9.22824610 63.20135160
16 1 -0.38177780 -4.16488670 -14.99125300
17 1 -10.65343850 -26.91575260 38.24544740
18 1 -169.66723380 -17.64615420 30.67588800
19 1 4.29019670 -96.99662320 -23.74582730
20 1 -181.78596390 -129.91597790 -71.38117070
21 1 -59.64672460 -16.81117190 68.51700180
22 1 -39.14266700 85.93425640 41.64260150
23 1 -10.61918710 -102.56665270 -55.71992690
24 1 169.44585280 -9.13927600 127.28279710
25 1 -114.22298890 -7.14141690 12.91444860
26 1 -143.86298090 -101.62223300 20.05335930
27 1 78.53887790 -68.79644310 21.55415540
28 1 -60.73399770 0.10358960 13.43615590
29 1 -1.85333490 167.28926770 53.36576970
30 1 -94.40187080 107.85724090 41.03693650
31 1 -2.10061330 7.60088690 69.18908110
32 1 -93.71976670 49.79735860 -9.87651650
33 1 -90.72109840 -64.26606890 0.62111990
34 1 69.92757470 -239.17042530 53.34989710
35 1 51.42430010 -97.74514160 13.57357920
36 1 110.75774970 -133.84486410 19.79563840
37 1 79.33626720 99.49279840 36.07507820
38 1 30.45325390 63.46324950 -6.47643850
39 1 44.35389220 -27.95707870 31.28405920
40 1 -37.38623850 28.13919590 60.81670230
41 1 -8.67019890 -51.51076400 57.81845170
42 1 -36.70580520 78.02218300 32.25897100
43 1 1.99827680 73.20359580 24.86651640
44 1 34.69541510 43.89901690 49.40304980
45 1 192.93145300 -66.39926280 17.76979340
46 1 51.21628550 129.94396380 95.92271650
47 1 -11.01182510 29.79997110 -31.59524570
48 1 -110.32000010 -59.41281260 102.28888220
49 1 -135.31475040 95.34503740 17.35042260
50 1 -45.30958980 -9.82555710 48.83163620
51 1 -157.22019150 -105.21904770 53.42550080
52 1 -37.77637030 119.91791070 102.10968890
53 1 -43.58741270 -75.09118210 -14.49962010
54 1 -2.78397050 -18.50786930 -10.83973270
55 1 -50.25515780 -191.58019350 56.35065390
56 1 -67.36080820 -223.51837090 -14.87680320
57 1 -8.09794990 192.79695360 -26.31092300
58 1 -42.58367960 97.00915420 -67.42262780
59 1 2.82741130 -50.50828400 44.10953770
60 1 28.84803280 -34.61103970 48.30742270
61 1 69.90585430 82.35707360 113.05384660
62 1 -169.54735390 -101.11598060 30.69092520
63 1 -33.82785220 -40.46761140 -12.95580090
64 1 -54.60216170 -21.61764580 -19.67617620
65 1 -10.10875770 -61.01970450 -55.38869080
66 1 -5.34112990 -24.92917140 28.74068390
67 1 -10.75034490 -11.80002500 -31.13368720
68 1 -105.89655710 -35.48612120 26.66513260
69 1 49.60354580 18.98655350 19.70332670
70 1 -68.73337040 24.21198050 -64.86421530
71 1 160.19129160 -130.32240000 11.05192430
72 1 -52.15611050 50.02291660 -10.10875770
73 1 37.64771870 23.76337070 -73.77459170
74 1 -210.20000640 -111.62447720 -67.98067500
75 1 31.78989390 49.02628440 40.13512220
76 1 51.53331980 -105.10919260 -71.47974790
77 1 -110.85966850 167.81974670 -14.57856540
78 1 -12.41279090 -107.85181080 -34.24179290
79 1 -54.06708800 151.60463270 62.38976050
80 1 -123.84303760 -60.26784450 -16.43315340
81 1 106.08410440 0.38177780 54.85737640
82 1 -53.50486380 3.69956890 13.62453860
83 1 2.59015770 -22.03492810 -5.36660960
84 1 79.62865720 51.42597090 -132.85449740
85 1 -38.79305210 -28.06609840 5.24338810
86 1 -30.46996190 -51.74091670 61.84675050
87 1 -51.99696680 -10.58368260 44.02599770
88 1 36.58091290 -116.89877510 54.31311330
89 1 -27.22067360 -40.69567560 69.17320850
90 1 39.70363810 100.83110920 51.16866770
91 1 174.42107750 -68.59761790 -133.38790030
92 1 -5.19869420 -58.95584880 37.37370750
93 1 35.25555080 1.48951820 29.45411550
94 1 -45.37391560 -25.34018820 119.95466830
95 1 -59.24990960 47.40393760 52.40673050
96 1 64.49747470 -41.34561680 97.32410000
97 1 -106.10331860 -23.06205240 63.24103310
98 1 -108.89856700 -56.56785790 26.24409100
99 1 -49.88799950 109.33631660 99.55921270
100 1 -91.60369850 249.56405440 141.68133380
101 1 67.89838810 6.52113240 -24.36945340
102 1 1.27398500 -3.21796080 -36.19286960
103 1 248.87986180 -167.07749380 11.86351540
104 1 16.05764110 -65.55174950 97.50788800
105 1 25.15055240 5.93718780 60.04061570
106 1 -88.10963800 2.38882630 78.97746290
107 1 -5.06628330 25.76290060 2.90176190
108 1 80.99913090 -107.99967660 50.75138540
109 1 184.22491420 180.62935260 27.26954450
110 1 37.09259540 -98.44019440 44.70768410
111 1 -159.58646200 -32.53339990 49.92183320
112 1 -22.51695390 -89.03943820 56.42249830
113 1 -17.88549630 -11.62835030 12.83216170
114 1 -27.39694300 -17.39971120 -22.92964150
115 1 -5.12517900 105.68603630 62.27447530
116 1 -93.25361350 64.53840930 27.38775360
117 1 39.58709980 116.14775050 39.51985010
118 1 59.87478880 10.41994420 104.05617090
119 1 156.23066020 25.02398930 -0.88134700
120 1 39.33104970 190.83919370 72.58205820
121 1 -185.17142240 -58.20816580 110.21348660
122 1 -81.43019730 85.11890600 -125.21392900
123 1 -46.83878950 -61.27241300 -21.52575180
124 1 114.53250460 -136.22742490 2.71755620
125 1 199.61799460 46.44113910 -185.02188580
126 1 33.35919280 32.16122920 57.83850130
127 1 -2.82615820 10.78334320 -83.09222560
128 1 -90.66512660 82.72715580 16.75854170
129 1 -243.87414500 20.69995890 -137.97215780
130 1 -77.95911030 -4.89502630 -9.18731150
131 1 281.73990310 -75.64463460 -52.73796660
132 1 -46.59192880 86.09632400 -46.60487750
133 1 -117.60802970 -41.23993870 -53.22082780
134 1 29.99754320 246.79595650 88.23536570
135 1 33.62986240 37.56710260 25.77041920
136 1 -74.24325110 152.34688560 13.43782670
137 1 246.59921980 73.37401740 132.19578450
138 1 31.43819050 31.18924130 -39.25878760
139 1 40.21615600 0.37760080 21.54078900
140 1 -46.77571680 16.58394310 28.84260270
141 1 -548.33985200 -267.43660200 -46.50964190
142 1 16.80031170 -6.84777380 -15.16418080
143 1 64.68335120 -24.57913880 12.01179890
144 1 74.94582250 -126.21640900 17.31784200
145 1 44.01806140 181.27553450 -10.87565490
146 1 -76.86974870 37.73418260 67.42680480
147 1 118.02197040 42.94833170 7.45051490
148 1 36.51867560 -87.22578480 1.62735920
149 1 72.56743870 63.99205770 118.90832980
150 1 -0.02631510 61.86053460 -81.81489900
151 1 -75.31924630 -15.83041230 -18.05090550
152 1 -53.38247770 -79.93107200 -28.80500970
153 1 34.32992760 -84.05544180 16.75227620
154 1 -92.99129790 7.86737950 -1.28400980
155 1 8.19276780 -15.93734350 -18.15115350
156 1 6.83231890 -4.43263240 -16.46907560
157 1 60.30167820 60.07695560 105.34143380
158 1 -16.45027910 3.19624040 -59.02476930
159 1 -42.45085100 74.06489320 32.02046430
160 1 5.40169640 -46.35885220 74.12044730
161 1 -54.32564430 -43.39359990 -95.17085650
162 1 122.23906960 -36.27515650 4.50656530
163 1 -40.69651100 51.07593830 146.28188160
164 1 -79.03218160 99.10308430 -72.18649630
165 1 58.16597810 18.51705870 97.88799500
166 1 -7.01443610 1.64406720 -76.25865360
167 1 -10.18227290 22.53407960 69.22249710
168 1 -53.09760630 65.88549180 5.85949560
169 1 -98.64653820 -176.00040120 -105.97174310
170 1 -30.09570270 178.64193600 13.67675110
171 1 77.06397920 114.02458140 113.31031440
172 1 -76.39691230 246.45553100 66.54921710
173 1 12.02767150 -62.70136470 25.86356630
174 1 127.87760190 -21.73293100 -47.85421820
175 1 0.27317580 -146.98319990 1.89844650
176 1 -44.95203860 -6.29808060 20.57088960
177 1 -538.29583780 -68.40004580 95.09065810
178 1 -262.24124940 24.11423870 89.12214280
179 1 41.93582690 -105.20693440 42.74532950
180 1 -85.74378520 -13.13165260 55.11718580
181 1 -402.95059530 -58.98467010 -64.68794590
182 1 -15.18088880 33.20923850 60.39858460
183 1 24.01148450 -16.50708630 27.43286520
184 1 29.46831730 -17.60062490 47.48914840
185 1 -48.11862230 12.33676950 6.50484210
186 1 0.58185610 79.37761950 -3.78853900
187 1 -23.17357830 35.90006190 -68.65275430
188 1 -18.98989510 167.52192660 -28.46834350
189 1 236.76196710 81.79944410 19.72170550
190 1 24.49518110 46.27364140 73.12548590
191 1 156.27326560 133.12809090 282.39736290
192 1 -13.88393030 39.74874970 -21.57128110
193 1 51.32530520 73.73658100 -13.21101560
194 1 -11.44665080 -52.39127560 25.75579970
195 1 -6.14102540 37.08006440 10.67766510
196 1 53.39584410 73.32723500 19.52496880
197 1 41.02315240 -41.41077800 105.04486680
198 1 -25.89865310 19.18788490 97.57263150
199 1 -920.83259870 -135.61716520 39.41584280
200 1 -94.72475290 30.75942800 -141.95116800
201 1 57.07619880 24.07706340 18.75264150
202 1 58.99887190 88.63802850 -28.35055210
203 1 82.18205730 28.39858760 -27.12836190
204 1 -1.06889430 84.42176470 105.18646710
205 1 542.00877310 -249.78167610 -19.62187520
206 1 49.21967950 19.21628850 19.50784310
207 1 -153.38654090 -1.73512580 55.55075840
208 1 16.43858350 152.12258070 68.11308590
209 1 58.42871140 27.00973510 -15.06685670
210 1 163.61726700 -5.99148880 20.66069510
211 1 28.81879380 101.13519480 133.80768880
212 1 133.60552200 0.98493660 60.89606530
213 1 -145.44063380 39.93546160 -14.10990600
214 1 -45.31501990 -71.93086390 1.34541170
215 1 -29.06565450 146.24470630 68.00281310
216 1 -160.84958680 53.48397880 22.39958020
217 1 -46.25359180 -15.39516890 3.64777410
218 1 -96.57683470 35.27434730 -49.44022510
219 1 42.86479170 -4.00532530 80.01043500
220 1 -15.45698850 -35.88878400 59.96877130
221 1 149.01363960 -99.78268220 26.78751870
222 1 111.09525130 28.42532040 31.42440640
223 1 -95.08648110 -64.73180440 -19.75929850
224 1 -39.53196340 23.30181220 25.14428690
225 1 -189.78993130 59.77412310 -104.09418160
226 1 -62.66084780 -59.54188190 -71.18819330
227 1 40.80093600 42.56571850 21.96893150
228 1 23.02654790 24.18399460 62.04891730
229 1 -3.73716190 26.64633610 -38.87951600
230 1 23.62552970 17.21508780 -57.36023480
231 1 -51.59305090 106.43539010 69.93425790
232 1 -52.31024180 11.31382220 18.23135190
233 1 38.75587680 35.52329650 -62.93235280
234 1 -77.03432250 -29.64291590 105.48929960
235 1 51.46523470 32.10442200 -13.52387290
236 1 -12.07779550 -17.74556680 5.96392060
237 1 58.81341310 -36.52953580 -28.08948960
238 1 -42.53355560 -40.66560120 22.23834800
239 1 -445.89475000 -43.05359210 222.32959670
240 1 -135.32895220 54.40166570 24.83226500
241 1 190.75064130 150.64225190 -139.72775090
242 1 73.31010930 -60.74026320 68.94973900
243 1 -15.84043710 -72.54028820 -144.23348080
244 1 -756.97598960 -66.51997810 113.05301120
245 1 -0.39639730 75.03896960 -9.92956440
246 1 -99.69580060 88.62048510 -52.47690410
247 1 163.67073260 32.20049300 -76.33926970
248 1 -79.98370220 -69.37579300 -44.15632010
249 1 -53.64270480 49.35543200 48.53381610
250 1 19.45187130 113.87128550 62.79660030
251 1 -157.27741640 31.86215600 111.46783970
252 1 -59.24322640 75.05693070 69.90668970
253 1 -5.14439320 58.67014200 -12.97292660
254 1 -9.92037500 73.09791770 44.27870620
255 1 -97.67162640 -2.04338840 20.65484730
256 1 -189.60489020 -47.79824640 14.86970230
257 1 -275.32110720 255.43816950 14.26946740
258 1 -27.65633470 81.33705020 -62.94571920
259 1 30.68758360 113.38800660 -72.77002320
260 1 -41.67434670 19.93682100 44.12624570
261 1 -5.90084790 -32.73849060 137.03943370
262 1 -389.63599010 81.36378300 20.88667080
263 1 30.51716200 3.69288570 -28.26116430
264 1 -59.56402000 -30.62409320 -53.92005760
265 1 46.63202800 -73.54276820 -26.05069590
266 1 92.73858940 4.57089110 53.52950810
267 1 -7.08962210 -53.50528150 71.79469370
268 1 -3.81485410 100.21834330 -47.70509930
269 1 -101.21414010 -53.29434300 -70.79973230
270 1 45.62077630 -4.99402120 18.17663320
271 1 -69.30436630 40.23704100 13.89103120
272 1 27.11165390 162.28689250 -155.08156750
273 1 -212.42760050 77.18803610 -63.50460180
274 1 -93.29120650 12.65046220 -58.40615560
275 1 38.66398280 -30.33086780 -41.41996740
276 1 -34.39007640 -45.93613980 -16.88051010
277 1 -15.86173980 48.24184380 18.14655880
278 1 -2.04756540 -33.02169120 26.98968550
279 1 783.98906630 12.71186410 -16.56556430
280 1 159.64326920 -22.25129670 -165.48187980
281 1 -84.77472120 28.07862940 13.65085370
282 1 -61.64082440 39.86194640 -55.96428140
283 1 -72.14806790 -93.11953180 103.21116380
284 1 51.69288120 31.80994350 -13.73439370
285 1 75.80001900 108.93824850 140.23024400
286 1 -19.13066000 -0.53340290 -27.62667800
287 1 41.14177920 116.20205150 157.30832620
288 1 -462.52213390 149.23919760 30.67797650
289 1 -36.53329510 -4.75802070 74.24701040
290 1 -14.76277110 74.30214680 61.54141180
291 1 -39.80722770 22.68695780 67.39213570
292 1 -10.73906700 30.28116150 -197.93257510
293 1 102.59422090 -64.77273900 105.12255900
294 1 -74.26330070 27.02686080 -27.93995300
295 1 0.98786050 -45.07734860 -77.87724110
296 1 49.10522970 134.60090110 133.74628690
297 1 35.13692400 -70.09883170 -35.46273000
298 1 84.08593390 -124.14169310 -10.48218150
299 1 -64.15537840 6.67442830 26.75619120
300 1 -58.91199030 127.99915260 24.26669920
301 1 -10.08954350 -94.73018300 3.37042130
302 1 -137.02899120 -22.32481190 147.74508470
303 1 -136.77628270 -63.88554420 63.95530010
304 1 46.81539830 44.85596760 -35.02748660
305 1 -116.94096280 84.18200490 -64.41727630
306 1 82.72381420 -70.07752900 57.56574320
307 1 -16.34167710 136.36526590 -17.92016540
308 1 37.50486530 28.19725620 22.39373240
309 1 -49.48533670 17.67079850 -27.20981340
310 1 5.05166380 88.49601050 65.14407430
311 1 -52.87413680 36.50238530 -43.28792180
312 1 -89.56991720 16.06265350 -12.91653710
313 1 -46.62785100 24.00271280 9.26291520
314 1 -3.48069410 32.37968630 6.78470110
315 1 -2.93058320 73.09917080 -43.65215620
316 1 18.51162860 21.22208390 111.31913850
317 1 -14.20806550 -8.43795770 -22.70408350
318 1 16.30032480 102.01320020 97.84580730
319 1 -12.06985920 -4.50698300 -119.78090510
320 1 -9.65262930 -37.61221420 107.18850320
321 1 -148.99275460 177.69960480 63.17253030
322 1 -12.22064890 45.49463090 54.50358450
323 1 -10.30173510 114.57928700 -81.25601640
324 1 26.97882530 33.52585510 61.12914190
325 1 -9.46967670 43.23821550 -40.34188370
326 1 -47.53634850 48.07643460 18.26810950
327 1 37.00153680 -39.31601250 37.13561850
328 1 228.74964570 -119.23330040 -265.12546790
329 1 5.97018610 -22.38036600 -77.28452480
330 1 -64.61777230 -23.29930600 -20.53204350
331 1 -7.55285140 -207.04720680 216.47093650
332 1 -6.77384090 -94.62408720 113.97529280
333 1 -87.60046170 58.09663990 -5.14439320
334 1 -47.10653520 37.82022880 -40.74747040
335 1 74.17600140 71.49854440 -45.83881570
336 1 -120.43001090 -129.74179700 74.31133620
337 1 87.83019670 78.43654140 17.90345740
338 1 125.72059910 -63.50460180 43.35350070
339 1 -77.02012070 -29.82127380 146.65196380
340 1 -49.67998490 32.21887180 58.25620130
341 1 59.49802340 -73.35396780 62.13538120
342 1 203.46793550 8.41999660 137.42831240
343 1 14.94447060 23.59420220 -65.05969890
344 1 -76.92530280 53.83902380 -270.18882730
345 1 37.45641210 68.20122060 3.89296400
346 1 19.52162720 156.02306330 -62.26988060
347 1 -5.99107110 -28.95204010 -118.85862350
348 1 -2.90343270 -78.55349740 45.43991220
349 1 -123.94579180 -67.66907080 66.28564840
350 1 401.39716900 -24.89993240 -23.60756860
351 1 -130.16618020 58.52269390 -138.39111090
352 1 4.92635380 4.74507200 107.67554140
353 1 -76.83967430 -21.10011550 29.51551740
354 1 -2.36752360 106.67849150 30.82124760
355 1 -27.63920900 65.62568240 18.80067700
356 1 -126.24982500 -28.07821170 15.92648330
357 1 29.53306080 -23.94423480 8.63803600
358 1 4.13523000 -51.63147930 51.55712870
359 1 -52.28225590 -61.07818250 69.12559070
360 1 -30.47497430 -49.00957640 53.93927180
361 1 -6.65563180 -70.23876120 48.02756370
362 1 74.25745290 -136.47428560 37.22584170
363 1 -38.26633240 -111.76858370 -2.76517400
364 1 34.04129690 -1.33288070 58.57741260
365 1 -115.10099430 -110.75190190 -13.44283910
366 1 -26.75493810 66.28481300 19.60057250
367 1 26.11418630 -77.33297800 59.38816830
368 1 -37.13937780 28.14253750 101.80100860
369 1 8.41414880 -56.81012390 -18.25683160
370 1 -25.46340970 -64.87215160 13.90565070
371 1 -14.53721310 -227.97690070 97.26603970
372 1 -22.20952670 -35.80232010 68.93553720
373 1 44.38856130 23.27466170 10.44208230
374 1 -22.78804120 60.38605360 -103.99685750
375 1 107.27705560 101.08172920 152.04280000
376 1 122.35936720 -52.15360430 -1.54465460
377 1 148.16027850 -82.77017890 -69.55623940
378 1 -9.65388240 -11.43829680 37.39292170
379 1 -3.28312200 -72.56910950 85.02868280
380 1 98.34537650 -59.35809390 60.39273680
381 1 127.16751190 133.33861170 -4.75718530
382 1 46.38767350 -14.29369400 74.11877650
383 1 -13.71726800 -43.37689190 61.83004250
384 1 43.45750800 55.59837620 -52.65735050
385 1 1.23931590 -3.54543760 -45.71851810
386 1 -49.93770580 17.51708490 -68.93428410
387 1 -90.51517230 -129.63277730 35.03416980
388 1 -40.14180540 57.44544560 107.92407290
389 1 -104.23703500 -129.91263630 62.64121590
390 1 71.09964090 -99.24802620 -21.18198470
391 1 -6.51570230 -47.00002170 118.10843430
392 1 70.35362870 26.47299060 104.04656380
393 1 2.02166800 110.10572000 39.09839080
394 1 55.14976640 -68.92342390 228.99525330
395 1 -37.61722660 15.03552920 -30.00882110
396 1 -14.03430230 -4.76261540 95.10653070
397 1 23.96553750 52.58299990 -11.93034740
398 1 -34.85748270 -3.66573520 -59.27371850
399 1 65.66954090 -7.89494770 112.08645340
400 1 -28.32340160 -1.85751190 -28.03811250
401 1 -91.87436810 -4.26262850 -141.24316650
402 1 -12.55731510 59.34514520 133.52532360
403 1 3.65821660 -96.53715320 -23.44633640
404 1 123.73360020 -41.88486750 -71.85651330
405 1 59.88439590 -73.08204510 20.61850740
406 1 -116.43972280 -15.64453580 24.20279110
407 1 -36.70705830 93.90146620 57.49431650
408 1 46.27656530 -13.80749120 18.18081020
409 1 -38.37033970 -63.91979560 77.82043390
410 1 72.33728600 133.71788330 31.20093690
411 1 -24.67061510 13.01970900 68.79560770
412 1 192.42269440 -108.42948990 -23.70322190
413 1 6.80475070 -116.31023580 72.16394050
414 1 65.54924330 113.71590110 96.07100000
415 1 126.71639590 -87.37991610 -3.65445730
416 1 -39.00900300 61.93112590 36.42385770
417 1 -51.62270760 -30.09069030 66.67410940
418 1 -28.12039940 -44.29792040 20.92259300
419 1 -4.30982860 111.38054040 -61.24818640
420 1 -78.81205370 -13.60365360 73.74785890
421 1 6.95345190 -3.46106220 24.52191390
422 1 77.26155130 179.50406880 -77.02555080
423 1 40.19485330 7.93086990 26.71024420
424 1 -51.44434970 -75.51932460 -42.82009780
425 1 -6.65312560 72.09961470 197.24378780
426 1 1.42018000 -11.15676700 25.01020520
427 1 -137.24034740 1.34290550 37.01740940
428 1 -46.20137930 -98.79022700 45.18511520
429 1 38.19281720 -78.06645920 129.31365450
430 1 -1.08810850 -138.17348920 56.26794930
431 1 30.84881580 72.30428770 -31.05140030
432 1 66.38380790 -50.44771750 -13.76780970
433 1 33.96903480 124.56273470 -24.39117380
434 1 44.75822580 -189.66295050 -5.88372220
435 1 -527.11359110 111.00461040 -98.50159630
436 1 47.08773870 1.50998550 35.85244410
437 1 163.74717170 88.71070830 -38.46056290
438 1 32.66205150 46.69301220 66.19960220
439 1 47.54720870 120.94294650 -9.51980070
440 1 33.99952690 102.72746720 43.10705770
441 1 -53.61931360 121.25872770 5.81104240
442 1 -46.69510070 22.01362540 -21.12935450
443 1 -75.34973840 60.77994470 60.50635120
444 1 -126.44280240 -51.07426750 115.58552630
445 1 -45.58485410 -47.38138180 62.02469070
446 1 42.38944910 -40.09418760 73.24369500
447 1 475.93615170 34.47278100 -98.99740620
448 1 -225.01874930 10.72027050 23.19153940
449 1 73.03651580 106.47047690 28.57109770
450 1 -48.99621000 60.50802200 42.66513110
451 1 112.04426570 -127.38137430 20.42427690
452 1 -8.17313590 100.89000490 -68.87747690
453 1 -220.97541330 -87.68692560 255.80365700
454 1 -233.37149620 -237.68383100 -139.91738670
455 1 -97.00414180 -48.35128120 34.06343500
456 1 41.21320590 115.71626640 31.89055960
457 1 -1.82493130 -34.08264920 -14.81707210
458 1 60.69974630 -5.75715910 139.83175820
459 1 -51.62061910 49.57597760 -1.56094490
460 1 -2.01456710 -66.20712080 -32.87048380
461 1 32.33039770 -11.93619520 -46.14415440
462 1 -41.44544710 9.95170250 20.15235420
463 1 -38.97391620 55.52903800 171.52683420
464 1 51.43683110 -27.51097510 153.37985770
465 1 25.20151180 -67.11185900 59.74363100
466 1 70.89287940 62.27280450 147.60515520
467 1 -31.81328510 4.51491930 53.72540940
468 1 -1.46738010 -10.18101980 -2.16493910
469 1 -12.75572260 -6.54494130 159.31078000
470 1 16.43900120 160.54299500 26.99678640
471 1 42.82594560 7.58960900 -33.10147190
472 1 421.85527960 69.62557760 60.14336990
473 1 -49.23304590 124.40359100 17.27941360
474 1 -7.54992750 32.20759390 16.74392220
475 1 -29.52136520 -21.17070680 66.99406760
476 1 -32.57015750 -56.71697680 55.23706570
477 1 -139.78789970 -60.51136360 -28.35305830
478 1 0.94358430 50.01665110 -116.04290780
479 1 31.15540760 -33.49578070 31.58438550
480 1 78.57020540 50.11439290 11.85056670
481 1 73.45003880 -53.07003810 85.87828460
482 1 25.51938150 -109.06063460 17.71549240
483 1 76.37143260 -88.91245740 76.17177200
484 1 -123.81338090 -3.24427590 -77.82294010
485 1 -38.98811800 97.57388460 72.65473800
486 1 -14.33337550 78.57145850 137.31929270
487 1 -25.06116460 18.45941610 97.66076620
488 1 -236.05145940 -17.75600930 -106.20523740
489 1 24.08792360 -50.28857380 28.47920370
490 1 75.44622710 32.56430970 -25.83641580
491 1 -48.28612000 -5.16611360 10.80589900
492 1 -6.89873320 -12.02683610 30.09653810
493 1 -27.12669110 -41.06492240 26.92243580
494 1 -15.88471330 10.61041540 65.45359000
495 1 -42.47424220 -9.36734020 115.31861600
496 1 -55.09588310 82.64445120 30.14875060
497 1 36.25844850 48.29614480 60.25406040
498 1 29.35010820 19.18329020 -19.42388540
499 1 1.45443140 20.39963260 -24.57913880
500 1 46.47914980 51.36331590 99.36748840
501 1 103.20197440 2.37295370 145.32618400
502 1 46.53846320 28.01305050 115.73255670
503 1 9.54193880 68.69619510 55.06789720
504 1 -8.00647360 -217.76705960 58.13381520
505 1 -11.97963600 45.19138070 55.40122180
506 1 -46.91105160 -25.19858790 -12.44453610
507 1 5.00321060 56.93292770 53.85782030
508 1 -16.85461270 295.96384120 24.29677360
509 1 -0.99078440 -40.68899240 -228.82274320
510 1 -10.54525420 56.36360260 80.25813110
511 1 -5.36243260 50.13611330 -29.77198520
512 1 48.65118980 -3.21712540 -17.41976080
513 1 46.91940560 -36.71165300 23.69152630
514 1 7.94089470 1.77773120 -54.11261730
515 1 40.49893890 43.36561400 21.63393610
516 1 -40.62926130 -60.45873340 24.96551130
517 1 70.57292120 111.36884480 73.77584480
518 1 2.84746090 -28.30502280 4.36454730
519 1 -155.72858480 76.14253300 54.14269170
520 1 31.45907550 -33.55592950 -51.82779830
521 1 4.62477440 -13.90732150 115.90172520
522 1 -5.18031540 -25.08372040 28.44035760
523 1 -10.99804100 64.51084110 27.68807990
524 1 -4.99360350 24.18148840 51.06006570
525 1 -22.17276910 73.00518830 -20.66696060
526 1 97.86878080 42.75410120 -98.29274630
527 1 -46.06144980 26.22278830 128.11151390
528 1 -7.71450130 25.32932800 -25.98386390
529 1 47.43275890 -64.04301710 -77.61576090
530 1 31.43902590 94.67671740 17.93019020
531 1 9.60208760 97.72007960 27.76410130
532 1 85.88204390 -79.60025360 15.50753020
533 1 66.10394890 75.35516850 112.10357910
534 1 42.88233510 67.77098960 205.85759720
535 1 -52.54624230 22.78261110 27.91363790
536 1 -2.21548080 -24.72616920 9.34018970
537 1 53.21581540 175.06934790 26.67014500
538 1 -20.65735350 -127.08898430 69.62766610
539 1 -54.53867130 103.03740060 -60.67301350
540 1 110.61949100 -8.47387990 19.06508110
541 1 53.83150520 47.45155540 19.95895910
542 1 -39.92585450 26.55277130 38.15355340
543 1 81.73553600 -158.67462290 -14.60320970
544 1 -37.16109820 -51.83197530 8.64430150
545 1 -46.30120960 -38.84192300 -46.58232170
546 1 -87.46429150 57.81511010 -89.12882600
547 1 65.05677500 136.39408720 -53.32358200
548 1 71.27382180 96.33791030 3.35997880
549 1 9.19775400 277.47435070 180.32944400
550 1 -140.18137310 209.87169420 -33.91807540
551 1 29.01928980 17.47656800 -75.37145880
552 1 35.76263860 -40.54029120 -11.71690270
553 1 234.26662730 -35.52705580 101.02909900
554 1 2.83451220 55.59294610 -37.22333550
555 1 958.87796780 -249.03942320 22.10927870
556 1 -79.18714830 -139.58406210 74.06656400
557 1 -50.07930610 58.46839290 56.31055470
558 1 -136.18147790 30.60905600 -31.21722720
559 1 44.15632010 -15.57143830 -254.03845680
560 1 75.71522590 -84.50196310 100.43178800
561 1 -53.66609600 66.27854750 131.71125250
562 1 26.27792470 10.55862060 -18.32491670
563 1 -34.18790960 43.22568450 -53.87035130
564 1 31.01422500 22.49941050 27.98882390
565 1 2.14113020 -93.69219850 25.15598250
566 1 375.24914900 -171.13169000 194.80859680
567 1 16.55888110 29.04476950 -111.19174000
568 1 -115.25930260 -51.47776570 28.20393940
569 1 11.27539380 11.61289540 55.90037330
570 1 382.59440350 38.97266310 11.82675780
571 1 51.75219460 -14.50839180 139.35390940
572 1 -28.99798710 -27.55232740 -61.66087400
573 1 -13.03056920 26.90572780 20.73170410
574 1 -58.02688400 94.14958000 -18.84620630
575 1 8.69943790 -57.75997370 23.74958660
576 1 132.22084650 95.22181590 63.54177710
577 1 -148.08342170 -94.76902910 146.15323000
578 1 4.86411650 30.94112750 -74.29671670
579 1 -84.12478000 -41.36859030 -19.68912490
580 1 -10.25537040 -11.24949640 44.35639840
581 1 -61.77365300 38.00694070 21.65315030
582 1 125.91650040 85.84612170 -10.47883990
583 1 -4.81065090 58.57448870 71.17357380
584 1 238.87511140 133.14271040 90.13255910
585 1 30.69092520 63.77109440 77.05311900
586 1 30.29411020 31.83249930 25.61002240
587 1 37.05124310 55.96804070 21.87077200
588 1 -22.87366970 101.84695560 105.01312160
589 1 243.46396360 71.93086390 322.26724560
590 1 125.96954830 21.39710020 -24.47596690
591 1 -1.28651600 70.33817380 13.95201540
592 1 -138.41324900 15.90058590 -10.11961790
593 1 4.85993950 37.52742110 32.36590220
594 1 -9.22281600 45.85802990 65.29653480
595 1 -47.71721260 -4.38209070 -91.47128760
596 1 73.35605630 155.30253080 121.46256530
597 1 -32.24017450 -37.15483270 -71.26421470
598 1 32.14619200 -11.59326350 -4.07716970
599 1 33.40555750 -9.30343210 16.63782640
600 1 -32.29447550 -57.05322530 13.59279340
601 1 -1.11400590 -83.22756040 63.98829840
602 1 -2.27395880 -33.55885340 68.86954060
603 1 -96.20048700 17.87505380 7.86487330
604 1 2.36835900 3.93765790 57.68896470
605 1 -35.25471540 79.49332240 -58.26079600
606 1 -27.49677330 -44.92948280 -20.28184120
607 1 6.12515280 92.21729980 155.89107010
608 1 118.04536160 -40.64805780 7.49896810
609 1 30.99709930 14.48667140 -45.33548720
610 1 55.45051040 -2.97360630 104.73576880
611 1 53.54579840 178.71921050 13.45745860
612 1 155.64755100 -136.20069210 -142.20930660
613 1 84.71248390 -10.38652820 -15.94486210
614 1 -47.90350680 -53.20286670 -53.93927180
615 1 120.25875390 -25.19733480 70.25922850
616 1 0.33624850 1.99368210 -10.89486910
617 1 54.12055360 -196.81898690 -111.21680200
618 1 -1.85458800 -13.05730200 -27.92366270
619 1 14.31583210 -41.50058350 69.62933690
620 1 -13.80623810 22.83398820 -28.68387670
621 1 -135.27506890 114.45188850 -38.50233290
622 1 -130.22632900 -31.75981950 117.49692150
623 1 -12.09533890 26.35937620 62.31373910
624 1 -10.79587420 -26.97381290 -3.20334130
625 1 -9.90283160 87.69653270 -18.40386200
626 1 21.36410190 40.19318250 111.63533740
627 1 9.32891180 19.99571670 11.54856960
628 1 -32.22597270 103.53279280 53.35825110
629 1 -37.34948090 31.61487760 51.18662880
630 1 -143.37970200 -53.51697710 -29.35929760
631 1 30.07356460 24.07413950 5.53661350
632 1 -13.87181700 82.15615990 62.11783780
633 1 -10.77791310 21.23503260 76.93115060
634 1 -18.26476790 25.42957600 27.24782410
635 1 -85.59842560 125.91190570 -71.54657990
636 1 -100.17239630 45.54391950 24.08750590
637 1 23.79553360 17.04926090 -15.48413900
638 1 -40.10045310 -53.49567440 -17.00039000
639 1 -85.03411290 -54.71577610 -27.90946090
640 1 1.33956390 -20.96519840 58.46296280
641 1 -227.48610320 17.36629520 53.17195690
642 1 -48.50833640 43.21022960 71.36195650
643 1 68.99902760 78.59610280 54.40500730
644 1 -254.46284000 29.04602260 -19.26265320
645 1 25.01229370 86.71452000 -17.71716320
646 1 -19.12439450 -17.16830540 19.06633420
647 1 40.48014240 -13.26615200 55.87614670
648 1 -129.94521690 2.18415330 37.45432360
649 1 4.58843450 -55.59545230 73.79965370
650 1 -70.53198660 82.71211860 55.79887220
651 1 12.31839070 20.44641500 -99.18662430
652 1 -53.80310160 -46.13747120 -36.54540840
653 1 121.14970800 23.82226640 -74.29588130
654 1 -48.01127340 -28.62915800 6.45722430
655 1 -11.49176240 -103.55158930 -89.85437090
656 1 -194.56674850 -1.95441830 56.01440540
657 1 -7.96512130 -171.23444420 24.90076780
658 1 -93.37767040 -34.36125510 40.47596540
659 1 77.87348180 -35.68995880 18.54379150
660 1 -41.73533090 -22.20576740 85.17070080
661 1 -166.43256500 -33.72969270 -32.71677020
662 1 48.92394790 -46.25860420 107.56359780
663 1 -257.39718250 -81.67329870 71.17691540
664 1 -39.08544210 -121.43249090 98.88755110
665 1 -1066.95951360 -81.02753450 103.66269750
666 1 -47.06392980 -59.31214690 79.50668880
667 1 -45.47834060 -6.99062720 103.98223800
668 1 25.71486510 -25.27085000 18.05633560
669 1 -1.13280240 0.69045810 -62.15167150
670 1 -49.35752050 -82.05758270 90.64465930
671 1 -257.90594110 168.60209880 -34.01289330
672 1 -93.40649170 -75.77412160 -1.15452280
673 1 -69.88079230 -168.41413380 -69.76801330
674 1 247.80553740 -101.29433850 -135.89577110
675 1 -43.43244600 7.86320250 27.04941660
676 1 -20.41508750 121.96505840 -20.29938460
677 1 95.09483510 -29.61117070 -27.77579690
678 1 -79.56015440 -88.88614230 -23.80722920
679 1 74.48426400 46.67045640 -17.51457870
680 1 -286.84795640 51.27935820 141.00883680
681 1 -64.03424540 44.23150610 20.24842520
682 1 41.84560370 -73.76373150 -21.27596720
683 1 -38.31436790 -57.62589200 3.92638000
684 1 7.16689660 20.91549210 71.04617530
685 1 28.83926110 -6.80809230 -7.42670600
686 1 -82.42223480 16.20174760 -16.35587890
687 1 38.76924320 -30.38892810 -41.52606320